 Entering Gaussian System, Link 0=g09
 Initial command:
 /home/apps/iiser/g09/g09/l1.exe "/home/aloke/aloke/prakash/Gau-17924.inp" -scrdir="/home/aloke/aloke/prakash/"
 Entering Link 1 = /home/apps/iiser/g09/g09/l1.exe PID=     17925.
  
 Copyright (c) 1988,1990,1992,1993,1995,1998,2003,2009,2013,
            Gaussian, Inc.  All Rights Reserved.
  
 This is part of the Gaussian(R) 09 program.  It is based on
 the Gaussian(R) 03 system (copyright 2003, Gaussian, Inc.),
 the Gaussian(R) 98 system (copyright 1998, Gaussian, Inc.),
 the Gaussian(R) 94 system (copyright 1995, Gaussian, Inc.),
 the Gaussian 92(TM) system (copyright 1992, Gaussian, Inc.),
 the Gaussian 90(TM) system (copyright 1990, Gaussian, Inc.),
 the Gaussian 88(TM) system (copyright 1988, Gaussian, Inc.),
 the Gaussian 86(TM) system (copyright 1986, Carnegie Mellon
 University), and the Gaussian 82(TM) system (copyright 1983,
 Carnegie Mellon University). Gaussian is a federally registered
 trademark of Gaussian, Inc.
  
 This software contains proprietary and confidential information,
 including trade secrets, belonging to Gaussian, Inc.
  
 This software is provided under written license and may be
 used, copied, transmitted, or stored only in accord with that
 written license.
  
 The following legend is applicable only to US Government
 contracts under FAR:
  
                    RESTRICTED RIGHTS LEGEND
  
 Use, reproduction and disclosure by the US Government is
 subject to restrictions as set forth in subparagraphs (a)
 and (c) of the Commercial Computer Software - Restricted
 Rights clause in FAR 52.227-19.
  
 Gaussian, Inc.
 340 Quinnipiac St., Bldg. 40, Wallingford CT 06492
  
  
 ---------------------------------------------------------------
 Warning -- This program may not be used in any manner that
 competes with the business of Gaussian, Inc. or will provide
 assistance to any competitor of Gaussian, Inc.  The licensee
 of this program is prohibited from giving any competitor of
 Gaussian, Inc. access to this program.  By using this program,
 the user acknowledges that Gaussian, Inc. is engaged in the
 business of creating and licensing software in the field of
 computational chemistry and represents and warrants to the
 licensee that it is not a competitor of Gaussian, Inc. and that
 it will not use this program in any manner prohibited above.
 ---------------------------------------------------------------
  

 Cite this work as:
 Gaussian 09, Revision D.01,
 M. J. Frisch, G. W. Trucks, H. B. Schlegel, G. E. Scuseria, 
 M. A. Robb, J. R. Cheeseman, G. Scalmani, V. Barone, B. Mennucci, 
 G. A. Petersson, H. Nakatsuji, M. Caricato, X. Li, H. P. Hratchian, 
 A. F. Izmaylov, J. Bloino, G. Zheng, J. L. Sonnenberg, M. Hada, 
 M. Ehara, K. Toyota, R. Fukuda, J. Hasegawa, M. Ishida, T. Nakajima, 
 Y. Honda, O. Kitao, H. Nakai, T. Vreven, J. A. Montgomery, Jr., 
 J. E. Peralta, F. Ogliaro, M. Bearpark, J. J. Heyd, E. Brothers, 
 K. N. Kudin, V. N. Staroverov, T. Keith, R. Kobayashi, J. Normand, 
 K. Raghavachari, A. Rendell, J. C. Burant, S. S. Iyengar, J. Tomasi, 
 M. Cossi, N. Rega, J. M. Millam, M. Klene, J. E. Knox, J. B. Cross, 
 V. Bakken, C. Adamo, J. Jaramillo, R. Gomperts, R. E. Stratmann, 
 O. Yazyev, A. J. Austin, R. Cammi, C. Pomelli, J. W. Ochterski, 
 R. L. Martin, K. Morokuma, V. G. Zakrzewski, G. A. Voth, 
 P. Salvador, J. J. Dannenberg, S. Dapprich, A. D. Daniels, 
 O. Farkas, J. B. Foresman, J. V. Ortiz, J. Cioslowski, 
 and D. J. Fox, Gaussian, Inc., Wallingford CT, 2013.
 
 ******************************************
 Gaussian 09:  AM64L-G09RevD.01 24-Apr-2013
                14-Jul-2021 
 ******************************************
 %LindaWorkers=cn033
 %chk=nitro_mod_bp34_n.chk
 %mem=128GB
 %nprocshared=48
 Will use up to   48 processors via shared memory.
 SetLPE:  input flags=" -opt "Tsnet.Node.lindarsharg: ssh" "
 SetLPE:    new flags=" -opt "Tsnet.Node.lindarsharg: ssh"  -nodelist 'cn033'"
 Will use up to    1 processors via Linda.
 ----------------------------------------------------------------------
 # b3lyp/def2tzvp empiricaldispersion=gd3 pop=nbo6read pop=saveNBOs int
 =(grid=ultrafine) scf=(tight,maxcycle=300)
 ----------------------------------------------------------------------
 1/38=1,163=2/1;
 2/12=2,17=6,18=5,40=1/2;
 3/5=44,7=101,11=2,16=1,25=1,30=1,74=-5,75=-5,124=31/1,2,3;
 4//1;
 5/5=2,7=300,32=2,38=5/2;
 6/7=2,8=2,9=2,10=2,28=1,40=2,73=1,113=1,114=1,124=2103/1,12;
 99/5=1,9=1/99;
 ---------------------------------------------
 Energy Optimisation and Frequency calculation
 ---------------------------------------------
 Symbolic Z-matrix:
 Charge =  0 Multiplicity = 1
 C                     0.02374  -0.59794   0.29798 
 C                    -1.32783  -0.91316   0.27305 
 C                    -2.2816    0.0622    0.0106 
 C                    -1.91686   1.37268  -0.25102 
 C                    -0.57355   1.70439  -0.21219 
 C                     0.40619   0.7479    0.08318 
 H                    -1.6551   -1.93158   0.42536 
 H                    -2.67492   2.11199  -0.46148 
 H                    -0.28532   2.72994  -0.39215 
 N                     1.77382   1.08726   0.13254 
 C                     2.21635   2.22657  -0.65618 
 H                     1.94705   3.19469  -0.21032 
 H                     3.30398   2.1888   -0.73305 
 H                     1.79704   2.17378  -1.66026 
 C                     2.3837    1.08059   1.46467 
 H                     2.19244   2.02994   1.98258 
 H                     3.45854   0.92596   1.37542 
 H                     1.97527   0.27853   2.07164 
 C                     1.03125  -1.71737   0.41868 
 H                     0.48369  -2.6462    0.57679 
 H                     1.69189  -1.6014    1.27895 
 C                     1.91863  -1.86539  -0.8401 
 H                     2.24475  -2.90732  -0.9171 
 H                     1.34977  -1.63279  -1.74189 
 C                     3.18746  -1.04167  -0.79086 
 H                     3.38623  -0.39322  -1.66665 
 O                     3.99366  -1.12956   0.10381 
 N                    -3.70209  -0.31037  -0.01417 
 O                    -4.51532   0.56096  -0.28932 
 O                    -3.99363  -1.47043   0.24261 
 
                          Input orientation:                          
 ---------------------------------------------------------------------
 Center     Atomic      Atomic             Coordinates (Angstroms)
 Number     Number       Type             X           Y           Z
 ---------------------------------------------------------------------
      1          6           0        0.023743   -0.597941    0.297981
      2          6           0       -1.327832   -0.913155    0.273045
      3          6           0       -2.281596    0.062201    0.010596
      4          6           0       -1.916857    1.372678   -0.251015
      5          6           0       -0.573552    1.704387   -0.212189
      6          6           0        0.406192    0.747902    0.083182
      7          1           0       -1.655102   -1.931577    0.425359
      8          1           0       -2.674919    2.111991   -0.461479
      9          1           0       -0.285320    2.729942   -0.392149
     10          7           0        1.773822    1.087262    0.132538
     11          6           0        2.216354    2.226566   -0.656176
     12          1           0        1.947046    3.194687   -0.210317
     13          1           0        3.303979    2.188800   -0.733053
     14          1           0        1.797041    2.173775   -1.660263
     15          6           0        2.383702    1.080594    1.464670
     16          1           0        2.192435    2.029935    1.982577
     17          1           0        3.458544    0.925955    1.375417
     18          1           0        1.975274    0.278525    2.071637
     19          6           0        1.031246   -1.717373    0.418676
     20          1           0        0.483693   -2.646203    0.576789
     21          1           0        1.691888   -1.601396    1.278947
     22          6           0        1.918625   -1.865385   -0.840103
     23          1           0        2.244753   -2.907320   -0.917100
     24          1           0        1.349768   -1.632791   -1.741891
     25          6           0        3.187459   -1.041672   -0.790861
     26          1           0        3.386227   -0.393222   -1.666646
     27          8           0        3.993660   -1.129557    0.103805
     28          7           0       -3.702088   -0.310369   -0.014167
     29          8           0       -4.515322    0.560961   -0.289318
     30          8           0       -3.993632   -1.470425    0.242606
 ---------------------------------------------------------------------
                    Distance matrix (angstroms):
                    1          2          3          4          5
     1  C    0.000000
     2  C    1.388069   0.000000
     3  C    2.415153   1.389196   0.000000
     4  C    2.819692   2.417979   1.385217   0.000000
     5  C    2.432642   2.766933   2.379879   1.384199   0.000000
     6  C    1.415521   2.408734   2.774826   2.428701   1.400716
     7  H    2.147867   1.080504   2.130651   3.382913   3.846616
     8  H    3.899139   3.392002   2.139906   1.079600   2.155001
     9  H    3.412712   3.847268   3.356213   2.126969   1.080382
    10  N    2.435171   3.693463   4.184738   3.721517   2.451498
    11  C    3.700783   4.825200   5.035932   4.239895   2.872868
    12  H    4.282696   5.275683   5.267132   4.272133   2.928210
    13  H    4.425935   5.664630   6.022797   5.306180   3.942233
    14  H    3.829062   4.799130   4.887310   4.052256   2.817260
    15  C    3.122187   4.378412   4.991639   4.639364   3.456346
    16  H    3.800897   4.896586   5.270450   4.723050   3.545936
    17  H    3.909090   5.244706   5.963054   5.633807   4.402755
    18  H    2.778943   3.945319   4.734515   4.662678   3.707487
    19  C    1.510880   2.496643   3.782636   4.322987   3.831685
    20  H    2.117703   2.525339   3.911886   4.753873   4.546195
    21  H    2.179891   3.256413   4.490528   4.920258   4.275968
    22  C    2.547985   3.561646   4.699057   5.054008   4.398692
    23  H    3.426739   4.261045   5.492405   6.006750   5.450466
    24  H    2.643924   3.427446   4.373901   4.682563   4.144382
    25  C    3.375140   4.640718   5.636615   5.672262   4.692644
    26  H    3.899739   5.123971   5.928302   5.765858   4.711184
    27  O    4.010057   5.328579   6.388099   6.428164   5.384284
    28  N    3.749927   2.466360   1.468747   2.464913   3.726418
    29  O    4.721344   3.556594   2.308298   2.722567   4.104988
    30  O    4.111398   2.723594   2.309510   3.555262   4.688626
                    6          7          8          9         10
     6  C    0.000000
     7  H    3.397885   0.000000
     8  H    3.413303   4.263444   0.000000
     9  H    2.152350   4.926904   2.469181   0.000000
    10  N    1.409969   4.577844   4.603718   2.685844   0.000000
    11  C    2.451486   5.783428   4.896487   2.565438   1.454620
    12  H    2.906395   6.297471   4.753722   2.287468   2.142148
    13  H    3.337603   6.550718   5.985555   3.645836   2.074612
    14  H    2.647107   5.755087   4.630262   2.500732   2.096470
    15  C    2.435106   5.144442   5.510306   3.645793   1.465119
    16  H    2.905508   5.737774   5.447135   3.502657   2.118139
    17  H    3.319402   5.934431   6.511546   4.516102   2.099775
    18  H    2.576099   4.557896   5.603800   4.146079   2.110626
    19  C    2.565313   2.694883   5.401330   4.708439   2.915351
    20  H    3.430686   2.260103   5.804760   5.516625   3.974991
    21  H    2.932928   3.469867   5.990603   5.046028   2.924012
    22  C    3.157400   3.791741   6.087982   5.116157   3.112093
    23  H    4.212068   4.238294   7.043028   6.201255   4.156946
    24  H    3.144666   3.716919   5.644551   4.850645   3.330465
    25  C    3.420815   5.071639   6.664950   5.142396   2.717240
    26  H    3.639323   5.670804   6.668284   4.985855   2.833504
    27  O    4.049099   5.714468   7.436204   5.783716   3.137323
    28  N    4.243510   2.647952   2.668893   4.589190   5.653361
    29  O    4.939130   3.860617   2.412968   4.754784   6.325210
    30  O    4.929994   2.390561   3.881809   5.638934   6.310103
                   11         12         13         14         15
    11  C    0.000000
    12  H    1.099352   0.000000
    13  H    1.090992   1.768143   0.000000
    14  H    1.089404   1.779637   1.769408   0.000000
    15  C    2.416453   2.732332   2.627740   3.362205   0.000000
    16  H    2.646177   2.495125   2.938608   3.667057   1.098207
    17  H    2.713300   3.153779   2.462583   3.678723   1.089571
    18  H    3.360647   3.702987   3.644296   4.189370   1.085604
    19  C    4.256107   5.036135   4.663688   4.477663   3.279003
    20  H    5.316596   6.072638   5.748648   5.473707   4.276375
    21  H    4.321233   5.028461   4.583947   4.785596   2.775999
    22  C    4.106889   5.099193   4.285683   4.123380   3.769226
    23  H    5.140591   6.150013   5.208289   5.154635   4.647106
    24  H    4.101754   5.099706   4.409224   3.833622   4.325912
    25  C    3.412120   4.452235   3.233090   3.609463   3.199603
    26  H    3.041865   4.131008   2.746852   3.019110   3.603100
    27  O    3.872977   4.794412   3.491058   4.341552   3.054290
    28  N    6.471180   6.651061   7.473126   6.254680   6.415495
    29  O    6.944371   6.978893   7.999264   6.657821   7.137438
    30  O    7.282821   7.567038   8.221737   7.101619   6.976498
                   16         17         18         19         20
    16  H    0.000000
    17  H    1.786182   0.000000
    18  H    1.767068   1.761811   0.000000
    19  C    4.223324   3.714069   2.758093   0.000000
    20  H    5.173230   4.716764   3.607412   1.089743   0.000000
    21  H    3.732587   3.085107   2.059798   1.090855   1.744816
    22  C    4.818300   3.882198   3.616323   1.547215   2.162473
    23  H    5.726024   4.628490   4.376617   2.161682   2.324052
    24  H    5.291249   4.551014   4.311309   2.185557   2.674578
    25  C    4.256384   2.939014   3.377308   2.562968   3.428606
    26  H    4.540227   3.316565   4.051764   3.412899   4.305070
    27  O    4.093481   2.475576   3.151022   3.036539   3.852765
    28  N    6.649016   7.398249   6.076991   4.956961   4.829711
    29  O    7.232800   8.153962   6.912432   6.037920   6.002182
    30  O    7.317612   7.909540   6.483211   5.034023   4.641182
                   21         22         23         24         25
    21  H    0.000000
    22  C    2.147434   0.000000
    23  H    2.614138   1.094494   0.000000
    24  H    3.040311   1.091293   1.762300   0.000000
    25  C    2.614217   1.513561   2.094104   2.151973   0.000000
    26  H    3.606520   2.237028   2.861026   2.385238   1.107698
    27  O    2.627117   2.395449   2.694692   3.263434   1.207523
    28  N    5.695074   5.890048   6.551669   5.500462   6.971651
    29  O    6.757566   6.898275   7.623759   6.428203   7.883706
    30  O    5.780683   6.023540   6.505923   5.702325   7.267734
                   26         27         28         29         30
    26  H    0.000000
    27  O    2.011383   0.000000
    28  N    7.278857   7.740124   0.000000
    29  O    8.077250   8.684191   1.223223   0.000000
    30  O    7.698567   7.995767   1.223381   2.163708   0.000000
 Stoichiometry    C11H14N2O3
 Framework group  C1[X(C11H14N2O3)]
 Deg. of freedom    84
 Full point group                 C1      NOp   1
 Largest Abelian subgroup         C1      NOp   1
 Largest concise Abelian subgroup C1      NOp   1
                         Standard orientation:                         
 ---------------------------------------------------------------------
 Center     Atomic      Atomic             Coordinates (Angstroms)
 Number     Number       Type             X           Y           Z
 ---------------------------------------------------------------------
      1          6           0        0.023743   -0.597941    0.297981
      2          6           0       -1.327832   -0.913155    0.273045
      3          6           0       -2.281596    0.062201    0.010596
      4          6           0       -1.916857    1.372678   -0.251015
      5          6           0       -0.573552    1.704387   -0.212189
      6          6           0        0.406192    0.747902    0.083182
      7          1           0       -1.655102   -1.931577    0.425359
      8          1           0       -2.674919    2.111991   -0.461479
      9          1           0       -0.285320    2.729942   -0.392149
     10          7           0        1.773822    1.087262    0.132538
     11          6           0        2.216354    2.226566   -0.656176
     12          1           0        1.947046    3.194687   -0.210317
     13          1           0        3.303979    2.188800   -0.733053
     14          1           0        1.797041    2.173775   -1.660263
     15          6           0        2.383702    1.080594    1.464670
     16          1           0        2.192435    2.029935    1.982577
     17          1           0        3.458544    0.925955    1.375417
     18          1           0        1.975274    0.278525    2.071637
     19          6           0        1.031246   -1.717373    0.418676
     20          1           0        0.483693   -2.646203    0.576789
     21          1           0        1.691888   -1.601396    1.278947
     22          6           0        1.918625   -1.865385   -0.840103
     23          1           0        2.244753   -2.907320   -0.917100
     24          1           0        1.349768   -1.632791   -1.741891
     25          6           0        3.187459   -1.041672   -0.790861
     26          1           0        3.386227   -0.393222   -1.666646
     27          8           0        3.993660   -1.129557    0.103805
     28          7           0       -3.702088   -0.310369   -0.014167
     29          8           0       -4.515322    0.560961   -0.289318
     30          8           0       -3.993632   -1.470425    0.242606
 ---------------------------------------------------------------------
 Rotational constants (GHZ):      1.0997414      0.3046756      0.2575007
 Standard basis: def2TZVP (5D, 7F)
 There are   660 symmetry adapted cartesian basis functions of A   symmetry.
 There are   580 symmetry adapted basis functions of A   symmetry.
   580 basis functions,   928 primitive gaussians,   660 cartesian basis functions
    59 alpha electrons       59 beta electrons
       nuclear repulsion energy      1113.3513074685 Hartrees.
 NAtoms=   30 NActive=   30 NUniq=   30 SFac= 1.00D+00 NAtFMM=   60 NAOKFM=F Big=F
 Integral buffers will be    131072 words long.
 Raffenetti 2 integral format.
 Two-electron integral symmetry is turned on.
 Nuclear repulsion after empirical dispersion term =     1113.3184980381 Hartrees.
 One-electron integrals computed using PRISM.
   1 Symmetry operations used in ECPInt.
 ECPInt:  NShTT=   27028 NPrTT=   82204 LenC2=   24699 LenP2D=   55565.
 LDataN:  DoStor=T MaxTD1= 6 Len=  172
 NBasis=   580 RedAO= T EigKep=  5.54D-06  NBF=   580
 NBsUse=   580 1.00D-06 EigRej= -1.00D+00 NBFU=   580
 ExpMin= 9.52D-02 ExpMax= 2.70D+04 ExpMxC= 9.22D+02 IAcc=3 IRadAn=         5 AccDes= 0.00D+00
 Harris functional with IExCor=  402 and IRadAn=       5 diagonalized for initial guess.
 HarFok:  IExCor=  402 AccDes= 0.00D+00 IRadAn=         5 IDoV= 1 UseB2=F ITyADJ=14
 ICtDFT=  3500011 ScaDFX=  1.000000  1.000000  1.000000  1.000000
 FoFCou: FMM=F IPFlag=           0 FMFlag=      100000 FMFlg1=           0
         NFxFlg=           0 DoJE=T BraDBF=F KetDBF=T FulRan=T
         wScrn=  0.000000 ICntrl=     500 IOpCl=  0 I1Cent=   200000004 NGrid=           0
         NMat0=    1 NMatS0=      1 NMatT0=    0 NMatD0=    1 NMtDS0=    0 NMtDT0=    0
 Petite list used in FoFCou.
 Keep R1 ints in memory in canonical form, NReq=14340362693.
 Requested convergence on RMS density matrix=1.00D-08 within 300 cycles.
 Requested convergence on MAX density matrix=1.00D-06.
 Requested convergence on             energy=1.00D-06.
 No special actions if energy rises.
 Integral accuracy reduced to 1.0D-05 until final iterations.
 Initial convergence to 1.0D-05 achieved.  Increase integral accuracy.
 SCF Done:  E(RB3LYP) =  -762.990914337     A.U. after   14 cycles
            NFock= 14  Conv=0.80D-08     -V/T= 2.0048

 **********************************************************************

            Population analysis using the SCF density.

 **********************************************************************

 Orbital symmetries:
       Occupied  (A) (A) (A) (A) (A) (A) (A) (A) (A) (A) (A) (A)
                 (A) (A) (A) (A) (A) (A) (A) (A) (A) (A) (A) (A)
                 (A) (A) (A) (A) (A) (A) (A) (A) (A) (A) (A) (A)
                 (A) (A) (A) (A) (A) (A) (A) (A) (A) (A) (A) (A)
                 (A) (A) (A) (A) (A) (A) (A) (A) (A) (A) (A)
       Virtual   (A) (A) (A) (A) (A) (A) (A) (A) (A) (A) (A) (A)
                 (A) (A) (A) (A) (A) (A) (A) (A) (A) (A) (A) (A)
                 (A) (A) (A) (A) (A) (A) (A) (A) (A) (A) (A) (A)
                 (A) (A) (A) (A) (A) (A) (A) (A) (A) (A) (A) (A)
                 (A) (A) (A) (A) (A) (A) (A) (A) (A) (A) (A) (A)
                 (A) (A) (A) (A) (A) (A) (A) (A) (A) (A) (A) (A)
                 (A) (A) (A) (A) (A) (A) (A) (A) (A) (A) (A) (A)
                 (A) (A) (A) (A) (A) (A) (A) (A) (A) (A) (A) (A)
                 (A) (A) (A) (A) (A) (A) (A) (A) (A) (A) (A) (A)
                 (A) (A) (A) (A) (A) (A) (A) (A) (A) (A) (A) (A)
                 (A) (A) (A) (A) (A) (A) (A) (A) (A) (A) (A) (A)
                 (A) (A) (A) (A) (A) (A) (A) (A) (A) (A) (A) (A)
                 (A) (A) (A) (A) (A) (A) (A) (A) (A) (A) (A) (A)
                 (A) (A) (A) (A) (A) (A) (A) (A) (A) (A) (A) (A)
                 (A) (A) (A) (A) (A) (A) (A) (A) (A) (A) (A) (A)
                 (A) (A) (A) (A) (A) (A) (A) (A) (A) (A) (A) (A)
                 (A) (A) (A) (A) (A) (A) (A) (A) (A) (A) (A) (A)
                 (A) (A) (A) (A) (A) (A) (A) (A) (A) (A) (A) (A)
                 (A) (A) (A) (A) (A) (A) (A) (A) (A) (A) (A) (A)
                 (A) (A) (A) (A) (A) (A) (A) (A) (A) (A) (A) (A)
                 (A) (A) (A) (A) (A) (A) (A) (A) (A) (A) (A) (A)
                 (A) (A) (A) (A) (A) (A) (A) (A) (A) (A) (A) (A)
                 (A) (A) (A) (A) (A) (A) (A) (A) (A) (A) (A) (A)
                 (A) (A) (A) (A) (A) (A) (A) (A) (A) (A) (A) (A)
                 (A) (A) (A) (A) (A) (A) (A) (A) (A) (A) (A) (A)
                 (A) (A) (A) (A) (A) (A) (A) (A) (A) (A) (A) (A)
                 (A) (A) (A) (A) (A) (A) (A) (A) (A) (A) (A) (A)
                 (A) (A) (A) (A) (A) (A) (A) (A) (A) (A) (A) (A)
                 (A) (A) (A) (A) (A) (A) (A) (A) (A) (A) (A) (A)
                 (A) (A) (A) (A) (A) (A) (A) (A) (A) (A) (A) (A)
                 (A) (A) (A) (A) (A) (A) (A) (A) (A) (A) (A) (A)
                 (A) (A) (A) (A) (A) (A) (A) (A) (A) (A) (A) (A)
                 (A) (A) (A) (A) (A) (A) (A) (A) (A) (A) (A) (A)
                 (A) (A) (A) (A) (A) (A) (A) (A) (A) (A) (A) (A)
                 (A) (A) (A) (A) (A) (A) (A) (A) (A) (A) (A) (A)
                 (A) (A) (A) (A) (A) (A) (A) (A) (A) (A) (A) (A)
                 (A) (A) (A) (A) (A) (A) (A) (A) (A) (A) (A) (A)
                 (A) (A) (A) (A) (A) (A) (A) (A) (A) (A) (A) (A)
                 (A) (A) (A) (A) (A) (A) (A) (A) (A) (A) (A) (A)
                 (A) (A) (A) (A) (A) (A) (A) (A) (A) (A) (A) (A)
                 (A) (A) (A) (A) (A) (A) (A) (A) (A) (A) (A) (A)
                 (A) (A) (A) (A) (A) (A) (A) (A) (A) (A) (A) (A)
                 (A) (A) (A) (A) (A) (A) (A) (A) (A) (A) (A) (A)
                 (A) (A) (A) (A) (A)
 The electronic state is 1-A.
 Alpha  occ. eigenvalues --  -19.15813 -19.15798 -19.12722 -14.55278 -14.35535
 Alpha  occ. eigenvalues --  -10.26777 -10.24230 -10.23836 -10.21792 -10.21113
 Alpha  occ. eigenvalues --  -10.21055 -10.20720 -10.20514 -10.20168 -10.19916
 Alpha  occ. eigenvalues --  -10.19468  -1.23235  -1.05805  -1.05572  -0.97182
 Alpha  occ. eigenvalues --   -0.89446  -0.82980  -0.80168  -0.77014  -0.73783
 Alpha  occ. eigenvalues --   -0.72365  -0.68875  -0.65257  -0.63027  -0.59363
 Alpha  occ. eigenvalues --   -0.57305  -0.55729  -0.54052  -0.53369  -0.52939
 Alpha  occ. eigenvalues --   -0.50774  -0.50145  -0.48901  -0.47845  -0.46146
 Alpha  occ. eigenvalues --   -0.45830  -0.45031  -0.44804  -0.42653  -0.41804
 Alpha  occ. eigenvalues --   -0.41132  -0.40147  -0.39780  -0.39317  -0.37620
 Alpha  occ. eigenvalues --   -0.37523  -0.35915  -0.31923  -0.31605  -0.30439
 Alpha  occ. eigenvalues --   -0.29899  -0.28301  -0.26575  -0.24287
 Alpha virt. eigenvalues --   -0.09554  -0.04354  -0.03298  -0.01111   0.01599
 Alpha virt. eigenvalues --    0.03820   0.04382   0.04765   0.06623   0.07343
 Alpha virt. eigenvalues --    0.07520   0.08243   0.08947   0.09347   0.09850
 Alpha virt. eigenvalues --    0.10792   0.11382   0.12441   0.12694   0.13575
 Alpha virt. eigenvalues --    0.14281   0.14656   0.15215   0.16606   0.17107
 Alpha virt. eigenvalues --    0.17787   0.19011   0.19159   0.19866   0.20941
 Alpha virt. eigenvalues --    0.21537   0.22052   0.22907   0.23667   0.24392
 Alpha virt. eigenvalues --    0.24676   0.25212   0.26102   0.27280   0.27709
 Alpha virt. eigenvalues --    0.28659   0.29980   0.30717   0.31344   0.31590
 Alpha virt. eigenvalues --    0.31976   0.32453   0.33065   0.33435   0.34439
 Alpha virt. eigenvalues --    0.35187   0.35442   0.35619   0.37087   0.37447
 Alpha virt. eigenvalues --    0.37901   0.38416   0.38600   0.39452   0.40070
 Alpha virt. eigenvalues --    0.40425   0.41301   0.41462   0.41828   0.42633
 Alpha virt. eigenvalues --    0.43465   0.43537   0.44129   0.44222   0.44611
 Alpha virt. eigenvalues --    0.45091   0.46232   0.46586   0.46820   0.47002
 Alpha virt. eigenvalues --    0.47855   0.48178   0.49062   0.50033   0.50387
 Alpha virt. eigenvalues --    0.50522   0.51650   0.52462   0.53579   0.54643
 Alpha virt. eigenvalues --    0.54708   0.56369   0.57225   0.57660   0.58830
 Alpha virt. eigenvalues --    0.60324   0.61381   0.61654   0.63054   0.63732
 Alpha virt. eigenvalues --    0.64475   0.64608   0.65297   0.66283   0.67710
 Alpha virt. eigenvalues --    0.67830   0.68158   0.69782   0.71029   0.71606
 Alpha virt. eigenvalues --    0.72908   0.74043   0.74443   0.76279   0.77431
 Alpha virt. eigenvalues --    0.78094   0.79547   0.80084   0.81022   0.81734
 Alpha virt. eigenvalues --    0.83566   0.84273   0.85347   0.85701   0.87840
 Alpha virt. eigenvalues --    0.88461   0.88967   0.89911   0.90643   0.91908
 Alpha virt. eigenvalues --    0.92871   0.93855   0.96188   0.97024   0.98499
 Alpha virt. eigenvalues --    0.99106   0.99543   1.00838   1.02131   1.03588
 Alpha virt. eigenvalues --    1.04166   1.04739   1.05554   1.06590   1.06862
 Alpha virt. eigenvalues --    1.07826   1.08554   1.10253   1.10812   1.13028
 Alpha virt. eigenvalues --    1.15211   1.15897   1.16833   1.18336   1.19421
 Alpha virt. eigenvalues --    1.20224   1.21684   1.24276   1.24805   1.25425
 Alpha virt. eigenvalues --    1.26475   1.28140   1.28915   1.29092   1.30025
 Alpha virt. eigenvalues --    1.31676   1.33426   1.33678   1.36841   1.38047
 Alpha virt. eigenvalues --    1.40399   1.40518   1.41437   1.42674   1.44925
 Alpha virt. eigenvalues --    1.45931   1.46859   1.47410   1.49246   1.50325
 Alpha virt. eigenvalues --    1.50446   1.51192   1.51543   1.53105   1.53288
 Alpha virt. eigenvalues --    1.53505   1.54528   1.55480   1.56979   1.57463
 Alpha virt. eigenvalues --    1.58079   1.58448   1.60301   1.60668   1.62514
 Alpha virt. eigenvalues --    1.62660   1.63914   1.64733   1.65450   1.66449
 Alpha virt. eigenvalues --    1.67260   1.68886   1.69306   1.70187   1.71204
 Alpha virt. eigenvalues --    1.72768   1.73638   1.74146   1.75829   1.77801
 Alpha virt. eigenvalues --    1.78332   1.78959   1.79320   1.81115   1.82249
 Alpha virt. eigenvalues --    1.84021   1.85601   1.86177   1.87817   1.88720
 Alpha virt. eigenvalues --    1.91045   1.91496   1.93389   1.94033   1.95499
 Alpha virt. eigenvalues --    1.97002   1.98583   1.99591   2.00023   2.01464
 Alpha virt. eigenvalues --    2.03018   2.03584   2.05226   2.07068   2.08095
 Alpha virt. eigenvalues --    2.08552   2.09988   2.10922   2.12302   2.13023
 Alpha virt. eigenvalues --    2.15098   2.15658   2.16572   2.18093   2.20020
 Alpha virt. eigenvalues --    2.20349   2.21164   2.22388   2.24126   2.25360
 Alpha virt. eigenvalues --    2.26953   2.27838   2.28384   2.29288   2.29816
 Alpha virt. eigenvalues --    2.31351   2.34382   2.34992   2.35827   2.37109
 Alpha virt. eigenvalues --    2.37989   2.40790   2.42131   2.43636   2.43668
 Alpha virt. eigenvalues --    2.45386   2.46882   2.47333   2.49797   2.49978
 Alpha virt. eigenvalues --    2.51275   2.52612   2.52860   2.55273   2.55409
 Alpha virt. eigenvalues --    2.55878   2.57061   2.57852   2.59444   2.60531
 Alpha virt. eigenvalues --    2.60954   2.61445   2.62568   2.63482   2.64065
 Alpha virt. eigenvalues --    2.65190   2.65814   2.67638   2.68179   2.70113
 Alpha virt. eigenvalues --    2.71470   2.72016   2.72613   2.72679   2.73958
 Alpha virt. eigenvalues --    2.74335   2.75559   2.77458   2.79438   2.80074
 Alpha virt. eigenvalues --    2.80329   2.82093   2.82439   2.83155   2.83586
 Alpha virt. eigenvalues --    2.85116   2.87040   2.87752   2.87938   2.88697
 Alpha virt. eigenvalues --    2.90652   2.92932   2.94466   2.95072   2.95799
 Alpha virt. eigenvalues --    2.97267   2.97993   2.98760   3.00120   3.01644
 Alpha virt. eigenvalues --    3.01975   3.04051   3.05383   3.05709   3.06767
 Alpha virt. eigenvalues --    3.07965   3.08793   3.09535   3.11118   3.11962
 Alpha virt. eigenvalues --    3.12436   3.14469   3.14758   3.15209   3.16260
 Alpha virt. eigenvalues --    3.17010   3.17482   3.18271   3.20122   3.20353
 Alpha virt. eigenvalues --    3.21120   3.21793   3.22863   3.23031   3.24521
 Alpha virt. eigenvalues --    3.26362   3.26991   3.28564   3.29017   3.29581
 Alpha virt. eigenvalues --    3.30944   3.31578   3.32258   3.32716   3.33914
 Alpha virt. eigenvalues --    3.34206   3.35622   3.36766   3.37788   3.38933
 Alpha virt. eigenvalues --    3.39107   3.41209   3.42168   3.43803   3.44173
 Alpha virt. eigenvalues --    3.45831   3.46817   3.47668   3.47944   3.49618
 Alpha virt. eigenvalues --    3.49896   3.51194   3.54122   3.54888   3.55562
 Alpha virt. eigenvalues --    3.58741   3.59034   3.59841   3.60797   3.63499
 Alpha virt. eigenvalues --    3.64826   3.65730   3.67330   3.69439   3.71371
 Alpha virt. eigenvalues --    3.71999   3.73741   3.75706   3.76702   3.77258
 Alpha virt. eigenvalues --    3.78563   3.79428   3.84175   3.85722   3.86244
 Alpha virt. eigenvalues --    3.87350   3.88904   3.91130   3.91862   3.95681
 Alpha virt. eigenvalues --    3.97609   3.98684   3.99327   4.01812   4.03871
 Alpha virt. eigenvalues --    4.05026   4.06773   4.07427   4.08817   4.09342
 Alpha virt. eigenvalues --    4.13136   4.15596   4.17309   4.19250   4.20631
 Alpha virt. eigenvalues --    4.21294   4.22064   4.23393   4.24198   4.26242
 Alpha virt. eigenvalues --    4.26878   4.28839   4.30743   4.32629   4.33038
 Alpha virt. eigenvalues --    4.37058   4.38119   4.40719   4.41544   4.44357
 Alpha virt. eigenvalues --    4.44996   4.48632   4.49658   4.52295   4.54112
 Alpha virt. eigenvalues --    4.56353   4.61107   4.62604   4.65664   4.66159
 Alpha virt. eigenvalues --    4.67127   4.71429   4.71852   4.72931   4.78561
 Alpha virt. eigenvalues --    4.81490   4.82342   4.88988   4.90380   4.92385
 Alpha virt. eigenvalues --    4.93665   4.95995   4.98921   5.00464   5.05460
 Alpha virt. eigenvalues --    5.07839   5.09755   5.12618   5.13997   5.14516
 Alpha virt. eigenvalues --    5.18016   5.18486   5.19026   5.21024   5.24517
 Alpha virt. eigenvalues --    5.27106   5.30000   5.30829   5.32170   5.34195
 Alpha virt. eigenvalues --    5.37283   5.41275   5.44608   5.48493   5.49986
 Alpha virt. eigenvalues --    5.53383   5.55238   5.59411   5.61013   5.65137
 Alpha virt. eigenvalues --    5.69900   5.72728   5.79635   5.82652   5.94955
 Alpha virt. eigenvalues --    5.97580   5.99709   6.09151   6.23117   6.27815
 Alpha virt. eigenvalues --    6.31521   6.32533   6.36920   6.38634   6.41400
 Alpha virt. eigenvalues --    6.41819   6.44738   6.46704   6.75294   6.84825
 Alpha virt. eigenvalues --    6.85010   6.87550   6.93075   6.93357   7.05998
 Alpha virt. eigenvalues --    7.12842   7.26908   7.41851   7.49756   7.54910
 Alpha virt. eigenvalues --   22.28228  22.41415  22.45092  22.48268  22.55554
 Alpha virt. eigenvalues --   22.74364  22.81496  22.84357  22.88888  23.00741
 Alpha virt. eigenvalues --   23.38311  32.51725  32.74786  43.86312  44.07157
 Alpha virt. eigenvalues --   44.11717
          Condensed to atoms (all electrons):
               1          2          3          4          5          6
     1  C    5.453390   0.280292   0.036592  -0.111169   0.007229   0.283977
     2  C    0.280292   5.436891   0.277545  -0.055968  -0.113204  -0.002901
     3  C    0.036592   0.277545   5.376865   0.317567   0.023028  -0.122025
     4  C   -0.111169  -0.055968   0.317567   5.229217   0.331150   0.039921
     5  C    0.007229  -0.113204   0.023028   0.331150   5.254403   0.361860
     6  C    0.283977  -0.002901  -0.122025   0.039921   0.361860   5.250552
     7  H   -0.066043   0.422811  -0.032374   0.009897  -0.004731   0.018659
     8  H   -0.002006   0.008091  -0.034123   0.417627  -0.049324   0.009179
     9  H    0.006602  -0.000250   0.012831  -0.043001   0.443853  -0.067930
    10  N   -0.094001   0.007257  -0.001689   0.008315  -0.077851   0.346604
    11  C    0.009272  -0.000281   0.000328  -0.002902   0.001533  -0.081553
    12  H   -0.004939   0.000181  -0.000013  -0.000740   0.006755  -0.014243
    13  H    0.001036  -0.000037   0.000002   0.000068   0.000526   0.008972
    14  H    0.004241  -0.000074  -0.000221   0.000526  -0.012643   0.002517
    15  C    0.019916   0.002592   0.000009   0.000177  -0.016109  -0.065812
    16  H   -0.003116   0.000064  -0.000116  -0.000629   0.004181  -0.007782
    17  H   -0.000674  -0.000130  -0.000011   0.000093  -0.000712   0.011215
    18  H   -0.001400   0.003064  -0.000455  -0.000116   0.003221  -0.010482
    19  C    0.275037  -0.036857   0.011350  -0.004902   0.018833  -0.170003
    20  H   -0.068157   0.002931   0.004105   0.000323  -0.000878   0.008038
    21  H   -0.021520   0.010342  -0.001558   0.000660  -0.001584  -0.008244
    22  C   -0.049885  -0.007621   0.000625  -0.000341  -0.000263  -0.009166
    23  H    0.008189  -0.000724  -0.000089  -0.000004   0.000015   0.001967
    24  H   -0.004374   0.003497  -0.000297   0.000622  -0.001151   0.010973
    25  C    0.005288  -0.001774   0.000571  -0.000006   0.001467   0.001016
    26  H    0.005675  -0.000125   0.000042   0.000146  -0.000121  -0.000291
    27  O    0.007750  -0.000272   0.000021   0.000007  -0.000096   0.000845
    28  N    0.007894  -0.065131   0.417096  -0.058677   0.007116  -0.001160
    29  O   -0.002696   0.022820  -0.170657   0.052353  -0.001625   0.001569
    30  O   -0.004436   0.043361  -0.166904   0.026434  -0.002539   0.002120
               7          8          9         10         11         12
     1  C   -0.066043  -0.002006   0.006602  -0.094001   0.009272  -0.004939
     2  C    0.422811   0.008091  -0.000250   0.007257  -0.000281   0.000181
     3  C   -0.032374  -0.034123   0.012831  -0.001689   0.000328  -0.000013
     4  C    0.009897   0.417627  -0.043001   0.008315  -0.002902  -0.000740
     5  C   -0.004731  -0.049324   0.443853  -0.077851   0.001533   0.006755
     6  C    0.018659   0.009179  -0.067930   0.346604  -0.081553  -0.014243
     7  H    0.491507  -0.000304   0.000051  -0.000036   0.000017   0.000000
     8  H   -0.000304   0.483416  -0.006133  -0.000152  -0.000025   0.000039
     9  H    0.000051  -0.006133   0.538034  -0.005901   0.002598   0.003567
    10  N   -0.000036  -0.000152  -0.005901   6.683046   0.285029  -0.034815
    11  C    0.000017  -0.000025   0.002598   0.285029   4.939064   0.406155
    12  H    0.000000   0.000039   0.003567  -0.034815   0.406155   0.601051
    13  H   -0.000001  -0.000002   0.000099  -0.047565   0.409199  -0.039360
    14  H    0.000002  -0.000001  -0.004019  -0.040875   0.416660  -0.036961
    15  C    0.000061   0.000012  -0.000938   0.235368  -0.058075  -0.016139
    16  H    0.000000   0.000008   0.000313  -0.029517  -0.007348   0.015587
    17  H   -0.000001  -0.000001  -0.000045  -0.047765  -0.007652  -0.003173
    18  H    0.000016   0.000001   0.000091  -0.035294   0.008613  -0.000075
    19  C   -0.015734   0.000113  -0.000105  -0.016212  -0.001966  -0.000153
    20  H    0.004547  -0.000003   0.000010  -0.000139   0.000013  -0.000002
    21  H    0.000992  -0.000002  -0.000010  -0.006872  -0.000031  -0.000060
    22  C    0.000085   0.000002   0.000092  -0.011084  -0.001339  -0.000366
    23  H   -0.000041   0.000000  -0.000001   0.002181  -0.000035   0.000011
    24  H    0.000524  -0.000002   0.000000  -0.001878  -0.000163  -0.000001
    25  C    0.000134  -0.000001  -0.000020   0.057957  -0.000292   0.001901
    26  H    0.000017  -0.000001  -0.000062  -0.004509   0.001776   0.000064
    27  O    0.000006   0.000000  -0.000003  -0.016433  -0.000688  -0.000183
    28  N   -0.007860  -0.006836  -0.000180   0.000004  -0.000001   0.000000
    29  O    0.001554   0.026086  -0.000136   0.000000   0.000000   0.000000
    30  O    0.030173   0.001339   0.000004   0.000001   0.000000   0.000000
              13         14         15         16         17         18
     1  C    0.001036   0.004241   0.019916  -0.003116  -0.000674  -0.001400
     2  C   -0.000037  -0.000074   0.002592   0.000064  -0.000130   0.003064
     3  C    0.000002  -0.000221   0.000009  -0.000116  -0.000011  -0.000455
     4  C    0.000068   0.000526   0.000177  -0.000629   0.000093  -0.000116
     5  C    0.000526  -0.012643  -0.016109   0.004181  -0.000712   0.003221
     6  C    0.008972   0.002517  -0.065812  -0.007782   0.011215  -0.010482
     7  H   -0.000001   0.000002   0.000061   0.000000  -0.000001   0.000016
     8  H   -0.000002  -0.000001   0.000012   0.000008  -0.000001   0.000001
     9  H    0.000099  -0.004019  -0.000938   0.000313  -0.000045   0.000091
    10  N   -0.047565  -0.040875   0.235368  -0.029517  -0.047765  -0.035294
    11  C    0.409199   0.416660  -0.058075  -0.007348  -0.007652   0.008613
    12  H   -0.039360  -0.036961  -0.016139   0.015587  -0.003173  -0.000075
    13  H    0.538133  -0.015947  -0.000524  -0.004436   0.006198   0.000303
    14  H   -0.015947   0.536131   0.011384  -0.000649   0.000338  -0.000426
    15  C   -0.000524   0.011384   4.967933   0.383333   0.421074   0.412409
    16  H   -0.004436  -0.000649   0.383333   0.598261  -0.037659  -0.024723
    17  H    0.006198   0.000338   0.421074  -0.037659   0.515101  -0.017375
    18  H    0.000303  -0.000426   0.412409  -0.024723  -0.017375   0.534453
    19  C    0.000485  -0.000337  -0.014985   0.000141   0.002166  -0.001668
    20  H    0.000002   0.000000   0.000337  -0.000023   0.000041   0.000300
    21  H   -0.000011   0.000070   0.006059  -0.000268  -0.001164  -0.000034
    22  C    0.002214   0.000085  -0.004035  -0.000533   0.005181   0.002336
    23  H   -0.000049  -0.000015  -0.000155   0.000032  -0.000158  -0.000146
    24  H   -0.000106   0.000213   0.000297  -0.000010  -0.000193  -0.000012
    25  C   -0.004754  -0.001828  -0.018665   0.003335  -0.010306  -0.002137
    26  H   -0.002968   0.000951   0.004484  -0.000011  -0.001573  -0.000841
    27  O    0.002314   0.000045  -0.000965   0.000024   0.010582  -0.002350
    28  N    0.000000   0.000000   0.000000   0.000000   0.000000   0.000001
    29  O    0.000000   0.000000   0.000000   0.000000   0.000000   0.000000
    30  O    0.000000   0.000000   0.000000   0.000000   0.000000   0.000000
              19         20         21         22         23         24
     1  C    0.275037  -0.068157  -0.021520  -0.049885   0.008189  -0.004374
     2  C   -0.036857   0.002931   0.010342  -0.007621  -0.000724   0.003497
     3  C    0.011350   0.004105  -0.001558   0.000625  -0.000089  -0.000297
     4  C   -0.004902   0.000323   0.000660  -0.000341  -0.000004   0.000622
     5  C    0.018833  -0.000878  -0.001584  -0.000263   0.000015  -0.001151
     6  C   -0.170003   0.008038  -0.008244  -0.009166   0.001967   0.010973
     7  H   -0.015734   0.004547   0.000992   0.000085  -0.000041   0.000524
     8  H    0.000113  -0.000003  -0.000002   0.000002   0.000000  -0.000002
     9  H   -0.000105   0.000010  -0.000010   0.000092  -0.000001   0.000000
    10  N   -0.016212  -0.000139  -0.006872  -0.011084   0.002181  -0.001878
    11  C   -0.001966   0.000013  -0.000031  -0.001339  -0.000035  -0.000163
    12  H   -0.000153  -0.000002  -0.000060  -0.000366   0.000011  -0.000001
    13  H    0.000485   0.000002  -0.000011   0.002214  -0.000049  -0.000106
    14  H   -0.000337   0.000000   0.000070   0.000085  -0.000015   0.000213
    15  C   -0.014985   0.000337   0.006059  -0.004035  -0.000155   0.000297
    16  H    0.000141  -0.000023  -0.000268  -0.000533   0.000032  -0.000010
    17  H    0.002166   0.000041  -0.001164   0.005181  -0.000158  -0.000193
    18  H   -0.001668   0.000300  -0.000034   0.002336  -0.000146  -0.000012
    19  C    5.129398   0.419945   0.398023   0.319324  -0.029484  -0.045064
    20  H    0.419945   0.572547  -0.028084  -0.026227  -0.009416  -0.000090
    21  H    0.398023  -0.028084   0.577228  -0.071199   0.002851   0.008163
    22  C    0.319324  -0.026227  -0.071199   5.324091   0.369988   0.359885
    23  H   -0.029484  -0.009416   0.002851   0.369988   0.573168  -0.026033
    24  H   -0.045064  -0.000090   0.008163   0.359885  -0.026033   0.596751
    25  C   -0.050147   0.004173  -0.005498   0.208837  -0.017782  -0.013593
    26  H   -0.008039  -0.000419   0.004855  -0.177870   0.008069   0.009186
    27  O   -0.018876   0.000002   0.021978  -0.117548   0.002270   0.005721
    28  N   -0.000271  -0.000065   0.000003   0.000018   0.000000  -0.000003
    29  O    0.000002  -0.000001   0.000000  -0.000002   0.000000   0.000000
    30  O   -0.000399  -0.000067  -0.000002   0.000009   0.000000  -0.000006
              25         26         27         28         29         30
     1  C    0.005288   0.005675   0.007750   0.007894  -0.002696  -0.004436
     2  C   -0.001774  -0.000125  -0.000272  -0.065131   0.022820   0.043361
     3  C    0.000571   0.000042   0.000021   0.417096  -0.170657  -0.166904
     4  C   -0.000006   0.000146   0.000007  -0.058677   0.052353   0.026434
     5  C    0.001467  -0.000121  -0.000096   0.007116  -0.001625  -0.002539
     6  C    0.001016  -0.000291   0.000845  -0.001160   0.001569   0.002120
     7  H    0.000134   0.000017   0.000006  -0.007860   0.001554   0.030173
     8  H   -0.000001  -0.000001   0.000000  -0.006836   0.026086   0.001339
     9  H   -0.000020  -0.000062  -0.000003  -0.000180  -0.000136   0.000004
    10  N    0.057957  -0.004509  -0.016433   0.000004   0.000000   0.000001
    11  C   -0.000292   0.001776  -0.000688  -0.000001   0.000000   0.000000
    12  H    0.001901   0.000064  -0.000183   0.000000   0.000000   0.000000
    13  H   -0.004754  -0.002968   0.002314   0.000000   0.000000   0.000000
    14  H   -0.001828   0.000951   0.000045   0.000000   0.000000   0.000000
    15  C   -0.018665   0.004484  -0.000965   0.000000   0.000000   0.000000
    16  H    0.003335  -0.000011   0.000024   0.000000   0.000000   0.000000
    17  H   -0.010306  -0.001573   0.010582   0.000000   0.000000   0.000000
    18  H   -0.002137  -0.000841  -0.002350   0.000001   0.000000   0.000000
    19  C   -0.050147  -0.008039  -0.018876  -0.000271   0.000002  -0.000399
    20  H    0.004173  -0.000419   0.000002  -0.000065  -0.000001  -0.000067
    21  H   -0.005498   0.004855   0.021978   0.000003   0.000000  -0.000002
    22  C    0.208837  -0.177870  -0.117548   0.000018  -0.000002   0.000009
    23  H   -0.017782   0.008069   0.002270   0.000000   0.000000   0.000000
    24  H   -0.013593   0.009186   0.005721  -0.000003   0.000000  -0.000006
    25  C    4.674658   0.438182   0.635259   0.000000   0.000000   0.000000
    26  H    0.438182   0.726776  -0.065781   0.000000   0.000000   0.000000
    27  O    0.635259  -0.065781   7.832739   0.000000   0.000000   0.000000
    28  N    0.000000   0.000000   0.000000   5.510373   0.388356   0.388361
    29  O    0.000000   0.000000   0.000000   0.388356   8.122965  -0.123742
    30  O    0.000000   0.000000   0.000000   0.388361  -0.123742   8.122842
 Mulliken charges:
               1
     1  C    0.022037
     2  C   -0.236391
     3  C    0.051954
     4  C   -0.156649
     5  C   -0.182341
     6  C    0.201608
     7  H    0.146073
     8  H    0.153003
     9  H    0.120586
    10  N   -0.153177
    11  C   -0.317905
    12  H    0.115910
    13  H    0.146211
    14  H    0.140834
    15  C   -0.269042
    16  H    0.111542
    17  H    0.156602
    18  H    0.132726
    19  C   -0.159613
    20  H    0.116254
    21  H    0.114920
    22  C   -0.115293
    23  H    0.115391
    24  H    0.097147
    25  C    0.094024
    26  H    0.062388
    27  O   -0.296366
    28  N    0.420965
    29  O   -0.316849
    30  O   -0.316549
 Sum of Mulliken charges =   0.00000
 Mulliken charges with hydrogens summed into heavy atoms:
               1
     1  C    0.022037
     2  C   -0.090318
     3  C    0.051954
     4  C   -0.003646
     5  C   -0.061754
     6  C    0.201608
    10  N   -0.153177
    11  C    0.085049
    15  C    0.131827
    19  C    0.071561
    22  C    0.097246
    25  C    0.156412
    27  O   -0.296366
    28  N    0.420965
    29  O   -0.316849
    30  O   -0.316549
 Electronic spatial extent (au):  <R**2>=           4150.7000
 Charge=              0.0000 electrons
 Dipole moment (field-independent basis, Debye):
    X=              3.7746    Y=              2.0781    Z=             -0.9713  Tot=              4.4169
 Quadrupole moment (field-independent basis, Debye-Ang):
   XX=           -130.9853   YY=            -88.1091   ZZ=            -91.9848
   XY=              1.8522   XZ=             -3.6591   YZ=              1.1009
 Traceless Quadrupole moment (field-independent basis, Debye-Ang):
   XX=            -27.2922   YY=             15.5840   ZZ=             11.7083
   XY=              1.8522   XZ=             -3.6591   YZ=              1.1009
 Octapole moment (field-independent basis, Debye-Ang**2):
  XXX=             54.1027  YYY=              1.1531  ZZZ=              0.1045  XYY=              8.7797
  XXY=             38.7530  XXZ=            -11.6342  XZZ=              2.9217  YZZ=             -3.1848
  YYZ=             -6.0532  XYZ=              3.8013
 Hexadecapole moment (field-independent basis, Debye-Ang**3):
 XXXX=          -4786.4335 YYYY=          -1092.9949 ZZZZ=           -336.5376 XXXY=             63.0817
 XXXZ=            -65.1552 YYYX=            -23.2832 YYYZ=             -6.3808 ZZZX=              3.6411
 ZZZY=             -1.4671 XXYY=           -867.7726 XXZZ=           -661.6719 YYZZ=           -249.2125
 XXYZ=             31.5707 YYXZ=             -5.7223 ZZXY=              2.7852
 N-N= 1.113318498038D+03 E-N=-4.006107674408D+03  KE= 7.593377837202D+02
 Running external command "gaunbo6 R"
         input file       "/home/aloke/aloke/prakash/Gau-17925.EIn"
         output file      "/home/aloke/aloke/prakash/Gau-17925.EOu"
         message file     "/home/aloke/aloke/prakash/Gau-17925.EMs"
         fchk file        "/home/aloke/aloke/prakash/Gau-17925.EFC"
         mat. el file     "/home/aloke/aloke/prakash/Gau-17925.EUF"

 Writing Wrt12E file "/home/aloke/aloke/prakash/Gau-17925.EUF"
 Gaussian matrix elements                                         Version   1 NLab= 7 Len12L=8 Len4L=8
 Write GAUSSIAN SCALARS               from file   501 offset           0 to matrix element file.
 Write OVERLAP                        from file   514 offset           0 to matrix element file.
 Write CORE HAMILTONIAN ALPHA         from file   515 offset           0 to matrix element file.
 Write CORE HAMILTONIAN BETA          from file   515 offset      168490 to matrix element file.
 Write KINETIC ENERGY                 from file   516 offset           0 to matrix element file.
 Write ORTHOGONAL BASIS               from file   685 offset           0 to matrix element file.
 Write DIPOLE INTEGRALS               from file   518 offset           0 to matrix element file.
 Array DIP VEL INTEGRALS               on  file    572 does not exist.
 Array R X DEL INTEGRALS               on  file    572 does not exist.
 Write ALPHA ORBITAL ENERGIES         from file     0 offset           0 to matrix element file.
 Write ALPHA MO COEFFICIENTS          from file 10524 offset           0 to matrix element file.
 Write ALPHA DENSITY MATRIX           from file     0 offset           0 to matrix element file.
 Write ALPHA SCF DENSITY MATRIX       from file 10528 offset           0 to matrix element file.
 Write ALPHA FOCK MATRIX              from file 10536 offset           0 to matrix element file.
 No 2e integrals to process.
 Perform NBO analysis...

 *********************************** NBO 6.0 ***********************************
             N A T U R A L   A T O M I C   O R B I T A L   A N D
          N A T U R A L   B O N D   O R B I T A L   A N A L Y S I S
 ************************* Aloke Das Software (101058) *************************
  (c) Copyright 1996-2016 Board of Regents of the University of Wisconsin System
      on behalf of the Theoretical Chemistry Institute.  All rights reserved.

          Cite this program as:

          NBO 6.0.  E. D. Glendening, J. K. Badenhoop, A. E. Reed,
          J. E. Carpenter, J. A. Bohmann, C. M. Morales, C. R. Landis,
          and F. Weinhold (Theoretical Chemistry Institute, University
          of Wisconsin, Madison, WI, 2013); http://nbo6.chem.wisc.edu/

       /E2PERT / : Analyze NBO Fock matrix
                   Print threshold set to 0.1
       /AONBO  / : Checkpoint the AO to NBO transformation
                   NBOs sorted by occupancy

 Filename set to /home/aloke/aloke/prakash/Gau-17925

 Job title:  Energy Optimisation and Frequency calculation


 NATURAL POPULATIONS:  Natural atomic orbital occupancies

  NAO Atom No lang   Type(AO)    Occupancy      Energy
 -------------------------------------------------------
   1    C  1  s      Cor( 1s)     1.99999     -10.21039
   2    C  1  s      Val( 2s)     0.92230      -0.12753
   3    C  1  s      Ryd( 3s)     0.00074       1.66477
   4    C  1  s      Ryd( 4s)     0.00012       2.40812
   5    C  1  s      Ryd( 5s)     0.00000      19.64052
   6    C  1  px     Val( 2p)     1.04903      -0.03950
   7    C  1  px     Ryd( 3p)     0.00404       1.07070
   8    C  1  px     Ryd( 4p)     0.00034       2.37248
   9    C  1  py     Val( 2p)     1.03614      -0.03698
  10    C  1  py     Ryd( 3p)     0.00328       1.10275
  11    C  1  py     Ryd( 4p)     0.00019       2.08592
  12    C  1  pz     Val( 2p)     1.00701      -0.12857
  13    C  1  pz     Ryd( 3p)     0.00189       0.72805
  14    C  1  pz     Ryd( 4p)     0.00009       1.44975
  15    C  1  dxy    Ryd( 3d)     0.00104       2.91284
  16    C  1  dxy    Ryd( 4d)     0.00067       3.87789
  17    C  1  dxz    Ryd( 3d)     0.00037       1.56959
  18    C  1  dxz    Ryd( 4d)     0.00023       3.44017
  19    C  1  dyz    Ryd( 3d)     0.00033       1.67802
  20    C  1  dyz    Ryd( 4d)     0.00024       3.41853
  21    C  1  dx2y2  Ryd( 3d)     0.00120       2.88142
  22    C  1  dx2y2  Ryd( 4d)     0.00059       4.11262
  23    C  1  dz2    Ryd( 3d)     0.00096       3.11902
  24    C  1  dz2    Ryd( 4d)     0.00007       3.76115
  25    C  1  f(0)   Ryd( 4f)     0.00042       3.30686
  26    C  1  f(c1)  Ryd( 4f)     0.00035       3.38663
  27    C  1  f(s1)  Ryd( 4f)     0.00038       3.36013
  28    C  1  f(c2)  Ryd( 4f)     0.00004       3.35475
  29    C  1  f(s2)  Ryd( 4f)     0.00006       3.37945
  30    C  1  f(c3)  Ryd( 4f)     0.00048       3.88149
  31    C  1  f(s3)  Ryd( 4f)     0.00036       3.88230

  32    C  2  s      Cor( 1s)     1.99999     -10.20504
  33    C  2  s      Val( 2s)     0.97343      -0.14194
  34    C  2  s      Ryd( 3s)     0.00065       3.08465
  35    C  2  s      Ryd( 4s)     0.00009       5.78195
  36    C  2  s      Ryd( 5s)     0.00001      12.67449
  37    C  2  px     Val( 2p)     1.05424      -0.03940
  38    C  2  px     Ryd( 3p)     0.00282       1.01678
  39    C  2  px     Ryd( 4p)     0.00017       2.06993
  40    C  2  py     Val( 2p)     1.16242      -0.07126
  41    C  2  py     Ryd( 3p)     0.00396       1.16381
  42    C  2  py     Ryd( 4p)     0.00016       2.26163
  43    C  2  pz     Val( 2p)     0.96369      -0.13263
  44    C  2  pz     Ryd( 3p)     0.00137       0.68953
  45    C  2  pz     Ryd( 4p)     0.00020       1.30150
  46    C  2  dxy    Ryd( 3d)     0.00202       2.16448
  47    C  2  dxy    Ryd( 4d)     0.00042       4.06968
  48    C  2  dxz    Ryd( 3d)     0.00041       1.50476
  49    C  2  dxz    Ryd( 4d)     0.00017       3.27384
  50    C  2  dyz    Ryd( 3d)     0.00055       1.47091
  51    C  2  dyz    Ryd( 4d)     0.00006       3.05816
  52    C  2  dx2y2  Ryd( 3d)     0.00137       2.31784
  53    C  2  dx2y2  Ryd( 4d)     0.00057       4.02211
  54    C  2  dz2    Ryd( 3d)     0.00139       1.92731
  55    C  2  dz2    Ryd( 4d)     0.00003       3.52737
  56    C  2  f(0)   Ryd( 4f)     0.00044       3.21782
  57    C  2  f(c1)  Ryd( 4f)     0.00031       3.45653
  58    C  2  f(s1)  Ryd( 4f)     0.00040       3.29563
  59    C  2  f(c2)  Ryd( 4f)     0.00009       3.30899
  60    C  2  f(s2)  Ryd( 4f)     0.00007       3.31854
  61    C  2  f(c3)  Ryd( 4f)     0.00044       3.88508
  62    C  2  f(s3)  Ryd( 4f)     0.00040       3.83552

  63    C  3  s      Cor( 1s)     1.99999     -10.23824
  64    C  3  s      Val( 2s)     0.92149      -0.14888
  65    C  3  s      Ryd( 3s)     0.00081       1.91138
  66    C  3  s      Ryd( 4s)     0.00011       2.31508
  67    C  3  s      Ryd( 5s)     0.00000      20.98244
  68    C  3  px     Val( 2p)     0.87719      -0.05691
  69    C  3  px     Ryd( 3p)     0.00525       1.03346
  70    C  3  px     Ryd( 4p)     0.00027       1.88153
  71    C  3  py     Val( 2p)     1.07814      -0.05940
  72    C  3  py     Ryd( 3p)     0.00544       1.19466
  73    C  3  py     Ryd( 4p)     0.00038       1.93486
  74    C  3  pz     Val( 2p)     1.08817      -0.14893
  75    C  3  pz     Ryd( 3p)     0.00156       0.73894
  76    C  3  pz     Ryd( 4p)     0.00013       1.25939
  77    C  3  dxy    Ryd( 3d)     0.00129       2.90216
  78    C  3  dxy    Ryd( 4d)     0.00053       4.05149
  79    C  3  dxz    Ryd( 3d)     0.00042       1.44954
  80    C  3  dxz    Ryd( 4d)     0.00016       3.32615
  81    C  3  dyz    Ryd( 3d)     0.00053       1.56412
  82    C  3  dyz    Ryd( 4d)     0.00029       3.48590
  83    C  3  dx2y2  Ryd( 3d)     0.00109       2.98403
  84    C  3  dx2y2  Ryd( 4d)     0.00067       4.12144
  85    C  3  dz2    Ryd( 3d)     0.00074       2.52959
  86    C  3  dz2    Ryd( 4d)     0.00015       3.81869
  87    C  3  f(0)   Ryd( 4f)     0.00044       3.31999
  88    C  3  f(c1)  Ryd( 4f)     0.00026       3.48034
  89    C  3  f(s1)  Ryd( 4f)     0.00034       3.41028
  90    C  3  f(c2)  Ryd( 4f)     0.00008       3.39334
  91    C  3  f(s2)  Ryd( 4f)     0.00011       3.36690
  92    C  3  f(c3)  Ryd( 4f)     0.00043       3.95464
  93    C  3  f(s3)  Ryd( 4f)     0.00042       3.93793

  94    C  4  s      Cor( 1s)     1.99999     -10.20708
  95    C  4  s      Val( 2s)     0.97768      -0.14660
  96    C  4  s      Ryd( 3s)     0.00079       2.13859
  97    C  4  s      Ryd( 4s)     0.00005       3.60245
  98    C  4  s      Ryd( 5s)     0.00000      16.62918
  99    C  4  px     Val( 2p)     1.11742      -0.05453
 100    C  4  px     Ryd( 3p)     0.00360       1.10580
 101    C  4  px     Ryd( 4p)     0.00016       2.05481
 102    C  4  py     Val( 2p)     1.09650      -0.05829
 103    C  4  py     Ryd( 3p)     0.00356       1.02175
 104    C  4  py     Ryd( 4p)     0.00016       2.02906
 105    C  4  pz     Val( 2p)     0.96134      -0.13234
 106    C  4  pz     Ryd( 3p)     0.00154       0.67688
 107    C  4  pz     Ryd( 4p)     0.00018       1.29113
 108    C  4  dxy    Ryd( 3d)     0.00088       2.30724
 109    C  4  dxy    Ryd( 4d)     0.00072       3.94321
 110    C  4  dxz    Ryd( 3d)     0.00039       1.54191
 111    C  4  dxz    Ryd( 4d)     0.00015       3.08198
 112    C  4  dyz    Ryd( 3d)     0.00054       1.55335
 113    C  4  dyz    Ryd( 4d)     0.00010       3.12189
 114    C  4  dx2y2  Ryd( 3d)     0.00207       2.16019
 115    C  4  dx2y2  Ryd( 4d)     0.00024       3.99563
 116    C  4  dz2    Ryd( 3d)     0.00132       1.87747
 117    C  4  dz2    Ryd( 4d)     0.00002       3.43825
 118    C  4  f(0)   Ryd( 4f)     0.00042       3.24546
 119    C  4  f(c1)  Ryd( 4f)     0.00035       3.38646
 120    C  4  f(s1)  Ryd( 4f)     0.00035       3.33965
 121    C  4  f(c2)  Ryd( 4f)     0.00004       3.32253
 122    C  4  f(s2)  Ryd( 4f)     0.00013       3.32865
 123    C  4  f(c3)  Ryd( 4f)     0.00041       3.83664
 124    C  4  f(s3)  Ryd( 4f)     0.00037       3.85256

 125    C  5  s      Cor( 1s)     1.99999     -10.20159
 126    C  5  s      Val( 2s)     0.97271      -0.14759
 127    C  5  s      Ryd( 3s)     0.00095       1.90600
 128    C  5  s      Ryd( 4s)     0.00007       2.51537
 129    C  5  s      Ryd( 5s)     0.00000      20.15403
 130    C  5  px     Val( 2p)     1.05768      -0.04412
 131    C  5  px     Ryd( 3p)     0.00241       0.96410
 132    C  5  px     Ryd( 4p)     0.00017       2.01679
 133    C  5  py     Val( 2p)     1.15162      -0.06996
 134    C  5  py     Ryd( 3p)     0.00312       1.13170
 135    C  5  py     Ryd( 4p)     0.00031       2.03546
 136    C  5  pz     Val( 2p)     1.04400      -0.13650
 137    C  5  pz     Ryd( 3p)     0.00207       0.67365
 138    C  5  pz     Ryd( 4p)     0.00020       1.29959
 139    C  5  dxy    Ryd( 3d)     0.00173       2.15048
 140    C  5  dxy    Ryd( 4d)     0.00039       3.97609
 141    C  5  dxz    Ryd( 3d)     0.00027       1.58288
 142    C  5  dxz    Ryd( 4d)     0.00016       3.22723
 143    C  5  dyz    Ryd( 3d)     0.00055       1.59733
 144    C  5  dyz    Ryd( 4d)     0.00005       3.00346
 145    C  5  dx2y2  Ryd( 3d)     0.00094       2.33079
 146    C  5  dx2y2  Ryd( 4d)     0.00051       3.96458
 147    C  5  dz2    Ryd( 3d)     0.00121       1.96362
 148    C  5  dz2    Ryd( 4d)     0.00002       3.44098
 149    C  5  f(0)   Ryd( 4f)     0.00045       3.24055
 150    C  5  f(c1)  Ryd( 4f)     0.00031       3.44383
 151    C  5  f(s1)  Ryd( 4f)     0.00037       3.28097
 152    C  5  f(c2)  Ryd( 4f)     0.00009       3.33038
 153    C  5  f(s2)  Ryd( 4f)     0.00007       3.32873
 154    C  5  f(c3)  Ryd( 4f)     0.00040       3.84535
 155    C  5  f(s3)  Ryd( 4f)     0.00037       3.81661

 156    C  6  s      Cor( 1s)     1.99999     -10.24216
 157    C  6  s      Val( 2s)     0.87609      -0.11675
 158    C  6  s      Ryd( 3s)     0.00113       1.30839
 159    C  6  s      Ryd( 4s)     0.00016       1.79948
 160    C  6  s      Ryd( 5s)     0.00000      20.59744
 161    C  6  px     Val( 2p)     0.90353      -0.02015
 162    C  6  px     Ryd( 3p)     0.00462       1.10615
 163    C  6  px     Ryd( 4p)     0.00044       1.92360
 164    C  6  py     Val( 2p)     1.04640      -0.04409
 165    C  6  py     Ryd( 3p)     0.00293       0.94591
 166    C  6  py     Ryd( 4p)     0.00040       2.05464
 167    C  6  pz     Val( 2p)     0.97041      -0.13364
 168    C  6  pz     Ryd( 3p)     0.00279       0.70633
 169    C  6  pz     Ryd( 4p)     0.00018       1.45275
 170    C  6  dxy    Ryd( 3d)     0.00105       3.04117
 171    C  6  dxy    Ryd( 4d)     0.00082       4.03444
 172    C  6  dxz    Ryd( 3d)     0.00059       1.93644
 173    C  6  dxz    Ryd( 4d)     0.00030       3.25719
 174    C  6  dyz    Ryd( 3d)     0.00034       1.90525
 175    C  6  dyz    Ryd( 4d)     0.00020       3.22561
 176    C  6  dx2y2  Ryd( 4d)     0.00086       3.22943
 177    C  6  dx2y2  Ryd( 3d)     0.00109       4.26520
 178    C  6  dz2    Ryd( 3d)     0.00062       3.14381
 179    C  6  dz2    Ryd( 4d)     0.00011       3.48200
 180    C  6  f(0)   Ryd( 4f)     0.00037       3.35257
 181    C  6  f(c1)  Ryd( 4f)     0.00026       3.42515
 182    C  6  f(s1)  Ryd( 4f)     0.00030       3.38707
 183    C  6  f(c2)  Ryd( 4f)     0.00008       3.42149
 184    C  6  f(s2)  Ryd( 4f)     0.00010       3.40539
 185    C  6  f(c3)  Ryd( 4f)     0.00036       3.88610
 186    C  6  f(s3)  Ryd( 4f)     0.00036       3.88139

 187    H  7  s      Val( 1s)     0.75665       0.04181
 188    H  7  s      Ryd( 2s)     0.00074       1.16558
 189    H  7  s      Ryd( 3s)     0.00007       1.51709
 190    H  7  px     Ryd( 2p)     0.00019       2.65181
 191    H  7  py     Ryd( 2p)     0.00069       2.84414
 192    H  7  pz     Ryd( 2p)     0.00013       2.15357

 193    H  8  s      Val( 1s)     0.75210       0.04322
 194    H  8  s      Ryd( 2s)     0.00049       1.18196
 195    H  8  s      Ryd( 3s)     0.00009       1.44491
 196    H  8  px     Ryd( 2p)     0.00047       2.71532
 197    H  8  py     Ryd( 2p)     0.00032       2.74135
 198    H  8  pz     Ryd( 2p)     0.00013       2.17168

 199    H  9  s      Val( 1s)     0.78011       0.02797
 200    H  9  s      Ryd( 2s)     0.00079       0.75129
 201    H  9  s      Ryd( 3s)     0.00009       1.89653
 202    H  9  px     Ryd( 2p)     0.00011       2.61522
 203    H  9  py     Ryd( 2p)     0.00075       2.83139
 204    H  9  pz     Ryd( 2p)     0.00017       2.14824

 205    N 10  s      Cor( 1s)     1.99999     -14.35515
 206    N 10  s      Val( 2s)     1.24186      -0.43630
 207    N 10  s      Ryd( 3s)     0.00116       1.33882
 208    N 10  s      Ryd( 4s)     0.00004       5.71744
 209    N 10  s      Ryd( 5s)     0.00000      25.41323
 210    N 10  px     Val( 2p)     1.31554      -0.20722
 211    N 10  px     Ryd( 3p)     0.00383       0.75871
 212    N 10  px     Ryd( 4p)     0.00013       3.12415
 213    N 10  py     Val( 2p)     1.51543      -0.23289
 214    N 10  py     Ryd( 3p)     0.00712       0.91648
 215    N 10  py     Ryd( 4p)     0.00013       2.88749
 216    N 10  pz     Val( 2p)     1.31691      -0.21585
 217    N 10  pz     Ryd( 3p)     0.00370       0.76362
 218    N 10  pz     Ryd( 4p)     0.00008       2.83133
 219    N 10  dxy    Ryd( 3d)     0.00093       2.53227
 220    N 10  dxy    Ryd( 4d)     0.00021       5.09058
 221    N 10  dxz    Ryd( 3d)     0.00061       2.11027
 222    N 10  dxz    Ryd( 4d)     0.00017       4.97121
 223    N 10  dyz    Ryd( 3d)     0.00133       2.09020
 224    N 10  dyz    Ryd( 4d)     0.00011       5.03439
 225    N 10  dx2y2  Ryd( 3d)     0.00253       2.32073
 226    N 10  dx2y2  Ryd( 4d)     0.00009       5.24516
 227    N 10  dz2    Ryd( 3d)     0.00196       2.06081
 228    N 10  dz2    Ryd( 4d)     0.00012       5.13702
 229    N 10  f(0)   Ryd( 4f)     0.00009       4.73220
 230    N 10  f(c1)  Ryd( 4f)     0.00014       4.80864
 231    N 10  f(s1)  Ryd( 4f)     0.00005       4.66093
 232    N 10  f(c2)  Ryd( 4f)     0.00013       4.67086
 233    N 10  f(s2)  Ryd( 4f)     0.00012       4.56951
 234    N 10  f(c3)  Ryd( 4f)     0.00017       4.73638
 235    N 10  f(s3)  Ryd( 4f)     0.00010       4.79984

 236    C 11  s      Cor( 1s)     1.99999     -10.21782
 237    C 11  s      Val( 2s)     1.08418      -0.23458
 238    C 11  s      Ryd( 3s)     0.00086       1.33759
 239    C 11  s      Ryd( 4s)     0.00003       1.70175
 240    C 11  s      Ryd( 5s)     0.00000      21.86805
 241    C 11  px     Val( 2p)     1.18483      -0.13134
 242    C 11  px     Ryd( 3p)     0.00179       0.74897
 243    C 11  px     Ryd( 4p)     0.00016       1.59252
 244    C 11  py     Val( 2p)     1.01293      -0.10242
 245    C 11  py     Ryd( 3p)     0.00139       0.63461
 246    C 11  py     Ryd( 4p)     0.00027       1.51726
 247    C 11  pz     Val( 2p)     1.11003      -0.12108
 248    C 11  pz     Ryd( 3p)     0.00189       0.65778
 249    C 11  pz     Ryd( 4p)     0.00008       1.50542
 250    C 11  dxy    Ryd( 3d)     0.00048       2.17585
 251    C 11  dxy    Ryd( 4d)     0.00006       2.65627
 252    C 11  dxz    Ryd( 3d)     0.00075       2.05718
 253    C 11  dxz    Ryd( 4d)     0.00006       2.64002
 254    C 11  dyz    Ryd( 3d)     0.00090       2.63303
 255    C 11  dyz    Ryd( 4d)     0.00010       2.88356
 256    C 11  dx2y2  Ryd( 3d)     0.00156       2.17161
 257    C 11  dx2y2  Ryd( 4d)     0.00008       3.07660
 258    C 11  dz2    Ryd( 3d)     0.00114       1.99203
 259    C 11  dz2    Ryd( 4d)     0.00006       2.84850
 260    C 11  f(0)   Ryd( 4f)     0.00017       3.49794
 261    C 11  f(c1)  Ryd( 4f)     0.00019       3.61181
 262    C 11  f(s1)  Ryd( 4f)     0.00003       3.39937
 263    C 11  f(c2)  Ryd( 4f)     0.00021       3.51223
 264    C 11  f(s2)  Ryd( 4f)     0.00002       3.38549
 265    C 11  f(c3)  Ryd( 4f)     0.00024       3.66069
 266    C 11  f(s3)  Ryd( 4f)     0.00004       3.37517

 267    H 12  s      Val( 1s)     0.82327      -0.00555
 268    H 12  s      Ryd( 2s)     0.00262       0.54300
 269    H 12  s      Ryd( 3s)     0.00005       2.02779
 270    H 12  px     Ryd( 2p)     0.00011       2.16187
 271    H 12  py     Ryd( 2p)     0.00063       2.71772
 272    H 12  pz     Ryd( 2p)     0.00019       2.23210

 273    H 13  s      Val( 1s)     0.79006       0.01221
 274    H 13  s      Ryd( 2s)     0.00071       0.68526
 275    H 13  s      Ryd( 3s)     0.00005       1.87455
 276    H 13  px     Ryd( 2p)     0.00086       2.75984
 277    H 13  py     Ryd( 2p)     0.00008       2.16081
 278    H 13  pz     Ryd( 2p)     0.00008       2.14758

 279    H 14  s      Val( 1s)     0.79287       0.00853
 280    H 14  s      Ryd( 2s)     0.00056       0.51828
 281    H 14  s      Ryd( 3s)     0.00004       2.00248
 282    H 14  px     Ryd( 2p)     0.00016       2.21989
 283    H 14  py     Ryd( 2p)     0.00008       2.17247
 284    H 14  pz     Ryd( 2p)     0.00069       2.74745

 285    C 15  s      Cor( 1s)     1.99999     -10.21103
 286    C 15  s      Val( 2s)     1.08931      -0.22967
 287    C 15  s      Ryd( 3s)     0.00101       1.26431
 288    C 15  s      Ryd( 4s)     0.00004       2.11925
 289    C 15  s      Ryd( 5s)     0.00000      21.59553
 290    C 15  px     Val( 2p)     1.16777      -0.12180
 291    C 15  px     Ryd( 3p)     0.00159       0.66386
 292    C 15  px     Ryd( 4p)     0.00009       1.51579
 293    C 15  py     Val( 2p)     1.20109      -0.12473
 294    C 15  py     Ryd( 3p)     0.00215       0.69463
 295    C 15  py     Ryd( 4p)     0.00020       1.62317
 296    C 15  pz     Val( 2p)     0.92811      -0.08836
 297    C 15  pz     Ryd( 3p)     0.00113       0.61993
 298    C 15  pz     Ryd( 4p)     0.00035       1.52824
 299    C 15  dxy    Ryd( 3d)     0.00075       1.89382
 300    C 15  dxy    Ryd( 4d)     0.00005       2.67315
 301    C 15  dxz    Ryd( 3d)     0.00065       2.41119
 302    C 15  dxz    Ryd( 4d)     0.00008       2.80520
 303    C 15  dyz    Ryd( 3d)     0.00124       1.93917
 304    C 15  dyz    Ryd( 4d)     0.00010       3.01461
 305    C 15  dx2y2  Ryd( 3d)     0.00155       1.97573
 306    C 15  dx2y2  Ryd( 4d)     0.00006       3.01447
 307    C 15  dz2    Ryd( 3d)     0.00081       2.52007
 308    C 15  dz2    Ryd( 4d)     0.00011       2.91874
 309    C 15  f(0)   Ryd( 4f)     0.00015       3.63188
 310    C 15  f(c1)  Ryd( 4f)     0.00023       3.62717
 311    C 15  f(s1)  Ryd( 4f)     0.00002       3.40118
 312    C 15  f(c2)  Ryd( 4f)     0.00024       3.56295
 313    C 15  f(s2)  Ryd( 4f)     0.00002       3.51024
 314    C 15  f(c3)  Ryd( 4f)     0.00020       3.48262
 315    C 15  f(s3)  Ryd( 4f)     0.00005       3.28810

 316    H 16  s      Val( 1s)     0.82057       0.00247
 317    H 16  s      Ryd( 2s)     0.00231       0.59102
 318    H 16  s      Ryd( 3s)     0.00004       1.94890
 319    H 16  px     Ryd( 2p)     0.00009       2.14125
 320    H 16  py     Ryd( 2p)     0.00057       2.60130
 321    H 16  pz     Ryd( 2p)     0.00027       2.40705

 322    H 17  s      Val( 1s)     0.77974       0.03054
 323    H 17  s      Ryd( 2s)     0.00092       0.70595
 324    H 17  s      Ryd( 3s)     0.00004       1.86894
 325    H 17  px     Ryd( 2p)     0.00085       2.77394
 326    H 17  py     Ryd( 2p)     0.00009       2.12119
 327    H 17  pz     Ryd( 2p)     0.00010       2.21233

 328    H 18  s      Val( 1s)     0.79214       0.02015
 329    H 18  s      Ryd( 2s)     0.00039       0.79556
 330    H 18  s      Ryd( 3s)     0.00005       1.83579
 331    H 18  px     Ryd( 2p)     0.00016       2.25989
 332    H 18  py     Ryd( 2p)     0.00044       2.49543
 333    H 18  pz     Ryd( 2p)     0.00036       2.54191

 334    C 19  s      Cor( 1s)     1.99999     -10.19900
 335    C 19  s      Val( 2s)     1.04783      -0.21092
 336    C 19  s      Ryd( 3s)     0.00071       1.62046
 337    C 19  s      Ryd( 4s)     0.00004       2.32812
 338    C 19  s      Ryd( 5s)     0.00000      20.77375
 339    C 19  px     Val( 2p)     1.10814      -0.09723
 340    C 19  px     Ryd( 3p)     0.00321       0.88565
 341    C 19  px     Ryd( 4p)     0.00019       1.70520
 342    C 19  py     Val( 2p)     1.12490      -0.10304
 343    C 19  py     Ryd( 3p)     0.00155       0.83591
 344    C 19  py     Ryd( 4p)     0.00030       1.75882
 345    C 19  pz     Val( 2p)     1.10460      -0.10455
 346    C 19  pz     Ryd( 3p)     0.00084       0.67401
 347    C 19  pz     Ryd( 4p)     0.00016       1.54764
 348    C 19  dxy    Ryd( 3d)     0.00157       2.36113
 349    C 19  dxy    Ryd( 4d)     0.00013       3.80319
 350    C 19  dxz    Ryd( 3d)     0.00124       2.06064
 351    C 19  dxz    Ryd( 4d)     0.00012       3.62848
 352    C 19  dyz    Ryd( 3d)     0.00021       1.72336
 353    C 19  dyz    Ryd( 4d)     0.00014       2.95672
 354    C 19  dx2y2  Ryd( 3d)     0.00030       2.03563
 355    C 19  dx2y2  Ryd( 4d)     0.00028       3.22401
 356    C 19  dz2    Ryd( 3d)     0.00102       2.06403
 357    C 19  dz2    Ryd( 4d)     0.00015       3.47407
 358    C 19  f(0)   Ryd( 4f)     0.00001       3.43197
 359    C 19  f(c1)  Ryd( 4f)     0.00047       3.77760
 360    C 19  f(s1)  Ryd( 4f)     0.00002       3.47101
 361    C 19  f(c2)  Ryd( 4f)     0.00003       3.46786
 362    C 19  f(s2)  Ryd( 4f)     0.00006       3.50756
 363    C 19  f(c3)  Ryd( 4f)     0.00029       3.74446
 364    C 19  f(s3)  Ryd( 4f)     0.00007       3.51364

 365    H 20  s      Val( 1s)     0.78250       0.02293
 366    H 20  s      Ryd( 2s)     0.00050       0.87685
 367    H 20  s      Ryd( 3s)     0.00003       1.78877
 368    H 20  px     Ryd( 2p)     0.00027       2.47104
 369    H 20  py     Ryd( 2p)     0.00069       2.79663
 370    H 20  pz     Ryd( 2p)     0.00011       2.30450

 371    H 21  s      Val( 1s)     0.77267       0.02909
 372    H 21  s      Ryd( 2s)     0.00164       0.72809
 373    H 21  s      Ryd( 3s)     0.00003       1.99637
 374    H 21  px     Ryd( 2p)     0.00043       2.53742
 375    H 21  py     Ryd( 2p)     0.00010       2.33254
 376    H 21  pz     Ryd( 2p)     0.00058       2.75697

 377    C 22  s      Cor( 1s)     1.99999     -10.19452
 378    C 22  s      Val( 2s)     1.09201      -0.23729
 379    C 22  s      Ryd( 3s)     0.00089       1.09795
 380    C 22  s      Ryd( 4s)     0.00002       4.56072
 381    C 22  s      Ryd( 5s)     0.00001      18.55509
 382    C 22  px     Val( 2p)     1.09288      -0.10559
 383    C 22  px     Ryd( 3p)     0.00217       0.76420
 384    C 22  px     Ryd( 4p)     0.00010       1.53914
 385    C 22  py     Val( 2p)     1.17884      -0.12248
 386    C 22  py     Ryd( 3p)     0.00110       0.85080
 387    C 22  py     Ryd( 4p)     0.00029       1.61635
 388    C 22  pz     Val( 2p)     1.11483      -0.10493
 389    C 22  pz     Ryd( 3p)     0.00152       0.76850
 390    C 22  pz     Ryd( 4p)     0.00018       1.50192
 391    C 22  dxy    Ryd( 3d)     0.00150       1.94638
 392    C 22  dxy    Ryd( 4d)     0.00006       3.42093
 393    C 22  dxz    Ryd( 3d)     0.00113       2.03289
 394    C 22  dxz    Ryd( 4d)     0.00019       3.64957
 395    C 22  dyz    Ryd( 3d)     0.00029       1.72092
 396    C 22  dyz    Ryd( 4d)     0.00008       2.97254
 397    C 22  dx2y2  Ryd( 3d)     0.00061       1.81932
 398    C 22  dx2y2  Ryd( 4d)     0.00012       3.24878
 399    C 22  dz2    Ryd( 3d)     0.00141       1.92813
 400    C 22  dz2    Ryd( 4d)     0.00014       3.42492
 401    C 22  f(0)   Ryd( 4f)     0.00002       3.41793
 402    C 22  f(c1)  Ryd( 4f)     0.00061       3.69578
 403    C 22  f(s1)  Ryd( 4f)     0.00008       3.44883
 404    C 22  f(c2)  Ryd( 4f)     0.00007       3.37005
 405    C 22  f(s2)  Ryd( 4f)     0.00002       3.45579
 406    C 22  f(c3)  Ryd( 4f)     0.00011       3.50853
 407    C 22  f(s3)  Ryd( 4f)     0.00026       3.52291

 408    H 23  s      Val( 1s)     0.76302       0.01118
 409    H 23  s      Ryd( 2s)     0.00056       0.71222
 410    H 23  s      Ryd( 3s)     0.00003       1.85883
 411    H 23  px     Ryd( 2p)     0.00016       2.36175
 412    H 23  py     Ryd( 2p)     0.00081       2.76290
 413    H 23  pz     Ryd( 2p)     0.00009       2.27462

 414    H 24  s      Val( 1s)     0.78952       0.01105
 415    H 24  s      Ryd( 2s)     0.00087       0.54129
 416    H 24  s      Ryd( 3s)     0.00003       2.07800
 417    H 24  px     Ryd( 2p)     0.00032       2.48715
 418    H 24  py     Ryd( 2p)     0.00008       2.24432
 419    H 24  pz     Ryd( 2p)     0.00063       2.72362

 420    C 25  s      Cor( 1s)     1.99999     -10.26766
 421    C 25  s      Val( 2s)     0.95887      -0.18674
 422    C 25  s      Ryd( 3s)     0.00950       1.19540
 423    C 25  s      Ryd( 4s)     0.00009       1.90291
 424    C 25  s      Ryd( 5s)     0.00001      21.79981
 425    C 25  px     Val( 2p)     0.83634      -0.03956
 426    C 25  px     Ryd( 3p)     0.00821       1.00435
 427    C 25  px     Ryd( 4p)     0.00023       1.21813
 428    C 25  py     Val( 2p)     0.84248      -0.09755
 429    C 25  py     Ryd( 3p)     0.00104       1.07647
 430    C 25  py     Ryd( 4p)     0.00018       1.03770
 431    C 25  pz     Val( 2p)     0.88275      -0.05013
 432    C 25  pz     Ryd( 3p)     0.00662       1.12737
 433    C 25  pz     Ryd( 4p)     0.00020       1.17667
 434    C 25  dxy    Ryd( 3d)     0.00112       2.99669
 435    C 25  dxy    Ryd( 4d)     0.00020       2.30725
 436    C 25  dxz    Ryd( 4d)     0.00047       2.96139
 437    C 25  dxz    Ryd( 3d)     0.00047       2.41545
 438    C 25  dyz    Ryd( 3d)     0.00119       2.79303
 439    C 25  dyz    Ryd( 4d)     0.00015       2.21450
 440    C 25  dx2y2  Ryd( 3d)     0.00067       2.77488
 441    C 25  dx2y2  Ryd( 4d)     0.00014       2.25414
 442    C 25  dz2    Ryd( 3d)     0.00142       2.91121
 443    C 25  dz2    Ryd( 4d)     0.00024       2.14722
 444    C 25  f(0)   Ryd( 4f)     0.00004       3.36166
 445    C 25  f(c1)  Ryd( 4f)     0.00023       3.51932
 446    C 25  f(s1)  Ryd( 4f)     0.00021       3.40930
 447    C 25  f(c2)  Ryd( 4f)     0.00020       3.46738
 448    C 25  f(s2)  Ryd( 4f)     0.00009       3.43977
 449    C 25  f(c3)  Ryd( 4f)     0.00005       3.39157
 450    C 25  f(s3)  Ryd( 4f)     0.00024       3.33361

 451    H 26  s      Val( 1s)     0.89113      -0.02774
 452    H 26  s      Ryd( 2s)     0.00321       0.47356
 453    H 26  s      Ryd( 3s)     0.00013       2.17430
 454    H 26  px     Ryd( 2p)     0.00020       2.29613
 455    H 26  py     Ryd( 2p)     0.00040       2.38195
 456    H 26  pz     Ryd( 2p)     0.00060       2.61126

 457    O 27  s      Cor( 1s)     1.99999     -19.12697
 458    O 27  s      Val( 2s)     1.70144      -0.68847
 459    O 27  s      Ryd( 3s)     0.00054       1.48209
 460    O 27  s      Ryd( 4s)     0.00002       4.88846
 461    O 27  s      Ryd( 5s)     0.00000      41.42441
 462    O 27  px     Val( 2p)     1.63820      -0.27968
 463    O 27  px     Ryd( 3p)     0.00178       0.66077
 464    O 27  px     Ryd( 4p)     0.00012       3.31679
 465    O 27  py     Val( 2p)     1.59018      -0.26749
 466    O 27  py     Ryd( 3p)     0.00225       0.69268
 467    O 27  py     Ryd( 4p)     0.00002       3.03475
 468    O 27  pz     Val( 2p)     1.59639      -0.28096
 469    O 27  pz     Ryd( 3p)     0.00160       0.65924
 470    O 27  pz     Ryd( 4p)     0.00010       3.35149
 471    O 27  dxy    Ryd( 3d)     0.00213       1.75026
 472    O 27  dxy    Ryd( 4d)     0.00001       6.49677
 473    O 27  dxz    Ryd( 3d)     0.00726       2.06957
 474    O 27  dxz    Ryd( 4d)     0.00000       6.64824
 475    O 27  dyz    Ryd( 3d)     0.00231       1.77628
 476    O 27  dyz    Ryd( 4d)     0.00002       6.48064
 477    O 27  dx2y2  Ryd( 3d)     0.00256       1.77209
 478    O 27  dx2y2  Ryd( 4d)     0.00001       6.47486
 479    O 27  dz2    Ryd( 3d)     0.00423       1.88614
 480    O 27  dz2    Ryd( 4d)     0.00003       6.55393
 481    O 27  f(0)   Ryd( 4f)     0.00009       5.71703
 482    O 27  f(c1)  Ryd( 4f)     0.00013       5.96114
 483    O 27  f(s1)  Ryd( 4f)     0.00003       5.52070
 484    O 27  f(c2)  Ryd( 4f)     0.00008       5.70698
 485    O 27  f(s2)  Ryd( 4f)     0.00011       5.68466
 486    O 27  f(c3)  Ryd( 4f)     0.00003       5.42117
 487    O 27  f(s3)  Ryd( 4f)     0.00003       5.43093

 488    N 28  s      Cor( 1s)     1.99999     -14.55265
 489    N 28  s      Val( 2s)     1.12111      -0.47063
 490    N 28  s      Ryd( 3s)     0.00436       2.22988
 491    N 28  s      Ryd( 4s)     0.00021       1.89782
 492    N 28  s      Ryd( 5s)     0.00000      27.93025
 493    N 28  px     Val( 2p)     1.16507      -0.26876
 494    N 28  px     Ryd( 3p)     0.00720       1.21777
 495    N 28  px     Ryd( 4p)     0.00008       2.07426
 496    N 28  py     Val( 2p)     1.02026      -0.23597
 497    N 28  py     Ryd( 3p)     0.01184       1.38701
 498    N 28  py     Ryd( 4p)     0.00009       2.56100
 499    N 28  pz     Val( 2p)     1.15091      -0.31602
 500    N 28  pz     Ryd( 3p)     0.00177       0.95917
 501    N 28  pz     Ryd( 4p)     0.00016       1.71172
 502    N 28  dxy    Ryd( 3d)     0.00286       2.80800
 503    N 28  dxy    Ryd( 4d)     0.00027       5.39618
 504    N 28  dxz    Ryd( 3d)     0.00139       2.19628
 505    N 28  dxz    Ryd( 4d)     0.00004       4.22860
 506    N 28  dyz    Ryd( 3d)     0.00416       2.42208
 507    N 28  dyz    Ryd( 4d)     0.00012       4.31013
 508    N 28  dx2y2  Ryd( 3d)     0.00393       2.66961
 509    N 28  dx2y2  Ryd( 4d)     0.00015       5.10430
 510    N 28  dz2    Ryd( 3d)     0.00122       3.02279
 511    N 28  dz2    Ryd( 4d)     0.00007       4.61544
 512    N 28  f(0)   Ryd( 4f)     0.00028       4.48045
 513    N 28  f(c1)  Ryd( 4f)     0.00017       4.35528
 514    N 28  f(s1)  Ryd( 4f)     0.00029       4.57693
 515    N 28  f(c2)  Ryd( 4f)     0.00011       4.50514
 516    N 28  f(s2)  Ryd( 4f)     0.00014       4.56210
 517    N 28  f(c3)  Ryd( 4f)     0.00040       5.12667
 518    N 28  f(s3)  Ryd( 4f)     0.00038       5.10931

[...]
  235.  0.00011     2.28466  474.   RY ( 3) H 26
  236.  0.00011     4.71461  511.   RY ( 9) N 28
  237.  0.00011     1.55904  297.   RY ( 6) C 11
  238.  0.00011     2.60893  417.   RY ( 8) C 22
  239.  0.00011     1.55425  339.   RY ( 7) C 15
  240.  0.00011     2.41152  401.   RY ( 2) H 20
  241.  0.00011     2.12976  257.   RY ( 2) H  8
  242.  0.00011     2.27076  236.   RY (12) C  6
  243.  0.00011     2.35556  437.   RY ( 2) H 23
  244.  0.00011     2.12324  324.   RY ( 2) H 13
  245.  0.00010     1.72452  418.   RY ( 9) C 22
  246.  0.00010     2.84997  274.   RY ( 9) N 10
  247.  0.00010     1.60575  533.   RY ( 5) O 29
  248.  0.00010     2.85283  275.   RY (10) N 10
  249.  0.00010     1.60341  559.   RY ( 5) O 30
  250.  0.00009     1.51326  298.   RY ( 7) C 11
  251.  0.00009     2.39567  480.   RY ( 4) O 27
  252.  0.00009     3.02405  159.   RY (13) C  3
  253.  0.00009     2.21840  360.   RY ( 2) H 16
  254.  0.00009     2.08700  329.   RY ( 2) H 14
  255.  0.00009     2.39408  452.   RY ( 7) C 25
  256.  0.00009     1.41659  258.   RY ( 3) H  8
  257.  0.00009     2.17841  319.   RY ( 2) H 12
  258.  0.00009     2.31342  407.   RY ( 3) H 21
  259.  0.00008     3.01116  207.   RY ( 9) C  5
  260.  0.00008     2.06366  253.   RY ( 3) H  7
  261.  0.00008     1.87857  263.   RY ( 3) H  9
  262.  0.00008     2.11596  365.   RY ( 2) H 17
  263.  0.00008     2.41779  383.   RY (10) C 19
  264.  0.00008     2.34081  402.   RY ( 3) H 20
  265.  0.00008     2.33758  442.   RY ( 2) H 24
  266.  0.00008     2.11505  320.   RY ( 3) H 12
  267.  0.00007     3.15414  131.   RY (11) C  2
  268.  0.00008     2.25938  438.   RY ( 3) H 23
  269.  0.00007     1.21965  182.   RY (10) C  4
  270.  0.00007     2.06374  371.   RY ( 3) H 18
  271.  0.00007     2.16716  330.   RY ( 3) H 14
  272.  0.00007     1.68048  481.   RY ( 5) O 27
  273.  0.00007     2.97203  106.   RY (12) C  1
  274.  0.00007     2.93671  453.   RY ( 8) C 25
  275.  0.00007     2.58680  264.   RY ( 4) H  9
  276.  0.00007     2.36065  443.   RY ( 3) H 24
  277.  0.00007     3.12379  534.   RY ( 6) O 29
  278.  0.00006     2.05146  254.   RY ( 4) H  7
  279.  0.00006     3.09655  560.   RY ( 6) O 30
  280.  0.00006     2.94073  276.   RY (11) N 10
  281.  0.00006     2.13000  366.   RY ( 3) H 17
  282.  0.00006     3.32061  237.   RY (13) C  6
  283.  0.00006     2.54202  259.   RY ( 4) H  8
  284.  0.00006     1.67610  299.   RY ( 8) C 11
  285.  0.00006     2.11300  325.   RY ( 3) H 13
  286.  0.00006     2.11333  361.   RY ( 3) H 16
  287.  0.00006     1.90440  454.   RY ( 9) C 25
  288.  0.00005     2.07948  475.   RY ( 4) H 26
  289.  0.00005     3.09804  107.   RY (13) C  1
  290.  0.00005     2.16751  132.   RY (12) C  2
  291.  0.00005     2.51160  208.   RY (10) C  5
  292.  0.00005     3.42747  238.   RY (14) C  6
  293.  0.00005     2.27637  372.   RY ( 4) H 18
  294.  0.00005     2.71969  384.   RY (11) C 19
  295.  0.00005     2.12646  367.   RY ( 4) H 17
  296.  0.00005     2.34569  160.   RY (14) C  3
  297.  0.00005     1.65304  340.   RY ( 8) C 15
  298.  0.00005     2.13205  326.   RY ( 4) H 13
  299.  0.00005     2.23418  419.   RY (10) C 22
  300.  0.00004     2.54223  108.   RY (14) C  1
  301.  0.00004     2.35837  444.   RY ( 4) H 24
  302.  0.00004     2.15098  183.   RY (11) C  4
  303.  0.00004     2.18638  321.   RY ( 4) H 12
  304.  0.00004     2.55237  408.   RY ( 4) H 21
  305.  0.00004     1.63029  341.   RY ( 9) C 15
  306.  0.00004     2.55454  385.   RY (12) C 19
  307.  0.00004     2.65946  239.   RY (15) C  6
  308.  0.00003     2.21336  362.   RY ( 4) H 16
  309.  0.00003     2.22967  403.   RY ( 4) H 20
  310.  0.00003     2.46921  184.   RY (12) C  4
  311.  0.00003     1.96145  209.   RY (11) C  5
  312.  0.00003     3.93696  277.   RY (12) N 10
  313.  0.00003     2.17423  331.   RY ( 4) H 14
  314.  0.00003     3.52021  512.   RY (10) N 28
  315.  0.00003     2.42755  420.   RY (11) C 22
  316.  0.00003     1.98170  482.   RY ( 6) O 27
  317.  0.00003     2.61224  561.   RY ( 7) O 30
  318.  0.00003     3.14878  109.   RY (15) C  1
  319.  0.00003     3.23048  133.   RY (13) C  2
  320.  0.00003     2.44017  455.   RY (10) C 25
  321.  0.00003     2.58796  535.   RY ( 7) O 29
  322.  0.00003     3.52190  278.   RY (13) N 10
  323.  0.00002     2.27823  300.   RY ( 9) C 11
  324.  0.00003     2.18762  342.   RY (10) C 15
  325.  0.00003     3.29289  386.   RY (13) C 19
  326.  0.00002     2.67001  421.   RY (12) C 22
  327.  0.00002     2.32109  439.   RY ( 4) H 23
  328.  0.00002     1.90393  456.   RY (11) C 25
  329.  0.00002     1.47316  483.   RY ( 7) O 27
  330.  0.00002     2.69698  134.   RY (14) C  2
  331.  0.00002     2.36900  185.   RY (13) C  4
  332.  0.00002     4.10129  279.   RY (14) N 10
  333.  0.00002     3.18148  240.   RY (16) C  6
  334.  0.00002     1.93216  301.   RY (10) C 11
  335.  0.00002     2.38650  513.   RY (11) N 28
  336.  0.00002     3.05618  110.   RY (16) C  1
  337.  0.00002     2.80547  135.   RY (15) C  2
  338.  0.00002     2.26959  210.   RY (12) C  5
  339.  0.00002     2.72872  186.   RY (14) C  4
  340.  0.00002     2.88503  255.   RY ( 5) H  7
  341.  0.00002     2.30453  302.   RY (11) C 11
  342.  0.00001     3.31285  111.   RY (17) C  1
  343.  0.00002     3.86362  161.   RY (15) C  3
  344.  0.00001     2.66438  136.   RY (16) C  2
  345.  0.00001     4.22696  162.   RY (16) C  3
  346.  0.00001     2.55553  211.   RY (13) C  5
  347.  0.00001     3.42668  241.   RY (17) C  6
  348.  0.00001     2.90452  260.   RY ( 5) H  8
  349.  0.00001     3.20220  343.   RY (11) C 15
  350.  0.00001     2.25299  387.   RY (14) C 19
  351.  0.00002     2.26049  457.   RY (12) C 25
  352.  0.00001     2.90583  476.   RY ( 5) H 26
  353.  0.00001     4.09382  514.   RY (12) N 28
  354.  0.00001     2.88204  265.   RY ( 5) H  9
  355.  0.00001     2.03880  422.   RY (13) C 22
  356.  0.00001     2.80312  112.   RY (18) C  1
  357.  0.00001     2.90372  187.   RY (15) C  4
  358.  0.00001     4.44360  280.   RY (15) N 10
  359.  0.00001     2.37713  409.   RY ( 5) H 21
  360.  0.00001     3.06743  536.   RY ( 8) O 29
  361.  0.00001     1.82207  537.   RY ( 9) O 29
  362.  0.00001     3.15452  562.   RY ( 8) O 30
  363.  0.00001     3.53773  212.   RY (14) C  5
  364.  0.00001     2.78263  113.   RY (19) C  1
  365.  0.00001     3.16383  114.   RY (20) C  1
  366.  0.00001     2.05268  137.   RY (17) C  2
  367.  0.00001     2.75081  213.   RY (15) C  5
  368.  0.00001     3.51378  242.   RY (18) C  6
  369.  0.00001     3.74792  163.   RY (17) C  3
  370.  0.00001     3.84637  243.   RY (19) C  6
  371.  0.00001     5.41419  281.   RY (16) N 10
  372.  0.00001     4.65482  282.   RY (17) N 10
  373.  0.00001     1.91642  303.   RY (12) C 11
  374.  0.00001     2.67123  332.   RY ( 5) H 14
  375.  0.00001     2.87324  388.   RY (15) C 19
  376.  0.00001     4.01394  515.   RY (13) N 28
  377.  0.00001     1.90356  344.   RY (12) C 15
  378.  0.00001     2.21873  458.   RY (13) C 25
  379.  0.00001     3.78998  516.   RY (14) N 28
  380.  0.00001     1.89096  563.   RY ( 9) O 30
  381.  0.00001     2.69444  389.   RY (16) C 19
  382.  0.00001     2.37629  404.   RY ( 5) H 20
  383.  0.00000     3.48196  138.   RY (18) C  2
  384.  0.00000     3.57958  188.   RY (16) C  4
  385.  0.00000     4.51631  214.   RY (16) C  5
  386.  0.00000     3.60808  215.   RY (17) C  5
  387.  0.00001     2.56403  327.   RY ( 5) H 13
  388.  0.00000     3.21534  244.   RY (20) C  6
  389.  0.00001     2.69925  345.   RY (13) C 15
  390.  0.00001     2.53997  363.   RY ( 5) H 16
  391.  0.00001     2.60083  368.   RY ( 5) H 17
  392.  0.00001     2.54896  390.   RY (17) C 19
  393.  0.00001     3.12391  423.   RY (14) C 22
  394.  0.00001     2.31214  440.   RY ( 5) H 23
  395.  0.00001     2.46310  445.   RY ( 5) H 24
  396.  0.00001     2.57843  459.   RY (14) C 25
  397.  0.00001     2.97423  517.   RY (15) N 28
  398.  0.00000     5.75363  115.   RY (21) C  1
  399.  0.00000    15.90708  116.   RY (22) C  1
  400.  0.00000     3.68223  117.   RY (23) C  1
  401.  0.00000     3.37688  118.   RY (24) C  1
  402.  0.00000     3.51331  119.   RY (25) C  1
  403.  0.00000     4.63911  139.   RY (19) C  2
  404.  0.00000     4.02526  120.   RY (26) C  1
  405.  0.00000     4.45684  140.   RY (20) C  2
  406.  0.00000     2.96320  141.   RY (21) C  2
  407.  0.00000     3.25791  142.   RY (22) C  2
  408.  0.00000     4.76925  143.   RY (23) C  2
  409.  0.00000     6.05748  144.   RY (24) C  2
  410.  0.00000     3.52673  164.   RY (18) C  3
  411.  0.00000     2.38265  165.   RY (19) C  3
  412.  0.00000     3.24865  189.   RY (17) C  4
  413.  0.00000     3.27544  190.   RY (18) C  4
  414.  0.00000     3.41666  145.   RY (25) C  2
  415.  0.00000     7.87743  146.   RY (26) C  2
  416.  0.00000     8.18429  166.   RY (20) C  3
  417.  0.00000     3.67930  167.   RY (21) C  3
  418.  0.00000     2.91180  191.   RY (19) C  4
  419.  0.00000     2.44799  216.   RY (18) C  5
  420.  0.00000     3.11671  217.   RY (19) C  5
  421.  0.00000     3.31136  168.   RY (22) C  3
  422.  0.00000     5.70972  169.   RY (23) C  3
  423.  0.00000     3.30767  170.   RY (24) C  3
  424.  0.00000     3.81034  171.   RY (25) C  3
  425.  0.00000    12.04759  172.   RY (26) C  3
  426.  0.00000     3.07523  192.   RY (20) C  4
  427.  0.00000    13.52804  193.   RY (21) C  4
  428.  0.00000     3.24947  194.   RY (22) C  4
  429.  0.00000     3.54119  195.   RY (23) C  4
  430.  0.00000     3.66490  218.   RY (20) C  5
  431.  0.00000     2.55993  245.   RY (21) C  6
  432.  0.00000     4.25949  283.   RY (18) N 10
  433.  0.00000     2.25093  304.   RY (13) C 11
  434.  0.00000     5.54671  196.   RY (24) C  4
  435.  0.00000     3.96486  197.   RY (25) C  4
  436.  0.00000     3.14617  198.   RY (26) C  4
  437.  0.00000     3.19296  219.   RY (21) C  5
  438.  0.00000     4.96856  220.   RY (22) C  5
  439.  0.00000     5.68816  221.   RY (23) C  5
  440.  0.00000     3.95098  222.   RY (24) C  5
  441.  0.00000     4.40494  223.   RY (25) C  5
  442.  0.00000    11.29180  224.   RY (26) C  5
  443.  0.00000     3.75613  246.   RY (22) C  6
  444.  0.00000     4.75719  247.   RY (23) C  6
  445.  0.00000     3.44577  248.   RY (24) C  6
  446.  0.00000    18.36670  249.   RY (25) C  6
  447.  0.00000     3.46334  250.   RY (26) C  6
  448.  0.00000     4.76325  284.   RY (19) N 10
  449.  0.00000     4.32478  285.   RY (20) N 10
  450.  0.00000     2.65376  322.   RY ( 5) H 12
  451.  0.00000     2.95974  346.   RY (14) C 15
  452.  0.00000     2.54550  373.   RY ( 5) H 18
  453.  0.00000     2.45906  391.   RY (18) C 19
  454.  0.00000     2.85208  424.   RY (15) C 22
  455.  0.00000     2.21893  460.   RY (15) C 25
  456.  0.00000     2.62084  484.   RY ( 8) O 27
  457.  0.00000     3.42376  485.   RY ( 9) O 27
  458.  0.00000    22.57260  286.   RY (21) N 10
  459.  0.00000     4.39094  287.   RY (22) N 10
  460.  0.00000     4.33358  288.   RY (23) N 10
  461.  0.00000     2.85858  305.   RY (14) C 11
  462.  0.00000     4.71760  289.   RY (24) N 10
  463.  0.00000     4.42635  290.   RY (25) N 10
  464.  0.00000     6.92244  291.   RY (26) N 10
  465.  0.00000    19.24693  306.   RY (15) C 11
  466.  0.00000     3.80147  307.   RY (16) C 11
  467.  0.00000     3.48089  308.   RY (17) C 11
  468.  0.00000     3.83110  309.   RY (18) C 11
  469.  0.00000     2.56788  310.   RY (19) C 11
  470.  0.00000     2.55813  311.   RY (20) C 11
  471.  0.00000     3.36899  312.   RY (21) C 11
  472.  0.00000     3.02953  313.   RY (22) C 11
  473.  0.00000     2.43375  347.   RY (15) C 15
  474.  0.00000     3.29249  314.   RY (23) C 11
  475.  0.00000     3.19058  315.   RY (24) C 11
  476.  0.00000     3.61765  316.   RY (25) C 11
  477.  0.00000     4.08408  317.   RY (26) C 11
  478.  0.00000     3.14686  348.   RY (16) C 15
  479.  0.00000    19.54373  349.   RY (17) C 15
  480.  0.00000     2.37667  350.   RY (18) C 15
  481.  0.00000     3.19762  351.   RY (19) C 15
  482.  0.00000     2.77395  352.   RY (20) C 15
  483.  0.00000     3.30336  392.   RY (19) C 19
  484.  0.00000     3.41835  353.   RY (21) C 15
  485.  0.00000     3.51086  354.   RY (22) C 15
  486.  0.00000     3.88722  355.   RY (23) C 15
  487.  0.00000     3.37137  356.   RY (24) C 15
  488.  0.00000     3.82111  357.   RY (25) C 15
  489.  0.00000     4.16261  358.   RY (26) C 15
  490.  0.00000     3.43517  393.   RY (20) C 19
  491.  0.00000    20.49838  394.   RY (21) C 19
  492.  0.00000     3.34934  395.   RY (22) C 19
  493.  0.00000     3.53023  396.   RY (23) C 19
  494.  0.00000     3.40798  397.   RY (24) C 19
  495.  0.00000     3.60268  398.   RY (25) C 19
  496.  0.00000     3.52482  399.   RY (26) C 19
  497.  0.00000     3.21648  425.   RY (16) C 22
  498.  0.00000     3.09523  426.   RY (17) C 22
  499.  0.00000     2.72949  427.   RY (18) C 22
  500.  0.00000     2.94515  428.   RY (19) C 22
  501.  0.00000     3.00950  461.   RY (16) C 25
  502.  0.00000     5.38523  429.   RY (20) C 22
  503.  0.00000     7.41681  430.   RY (21) C 22
  504.  0.00000     5.37844  431.   RY (22) C 22
  505.  0.00000     3.40159  432.   RY (23) C 22
  506.  0.00000     7.02119  433.   RY (24) C 22
  507.  0.00000     7.05462  434.   RY (25) C 22
  508.  0.00000     3.20973  435.   RY (26) C 22
  509.  0.00000     2.47137  462.   RY (17) C 25
  510.  0.00000    13.28611  463.   RY (18) C 25
  511.  0.00000     2.96612  464.   RY (19) C 25
  512.  0.00000     4.31272  465.   RY (20) C 25
  513.  0.00000     5.86361  466.   RY (21) C 25
  514.  0.00000     2.95549  467.   RY (22) C 25
  515.  0.00000     2.61739  468.   RY (23) C 25
  516.  0.00000     2.75180  486.   RY (10) O 27
  517.  0.00000     2.56159  518.   RY (16) N 28
  518.  0.00000     5.02525  538.   RY (10) O 29
  519.  0.00000     4.43638  564.   RY (10) O 30
  520.  0.00000     6.55427  469.   RY (24) C 25
  521.  0.00000     3.78603  470.   RY (25) C 25
  522.  0.00000     2.77411  471.   RY (26) C 25
  523.  0.00000     4.07356  487.   RY (11) O 27
  524.  0.00000     3.09282  488.   RY (12) O 27
  525.  0.00000    10.28877  489.   RY (13) O 27
  526.  0.00000     7.25596  490.   RY (14) O 27
  527.  0.00000    15.58270  491.   RY (15) O 27
  528.  0.00000     6.17980  492.   RY (16) O 27
  529.  0.00000     2.80466  493.   RY (17) O 27
  530.  0.00000     6.68756  494.   RY (18) O 27
  531.  0.00000     7.70552  495.   RY (19) O 27
  532.  0.00000     7.40351  496.   RY (20) O 27
  533.  0.00000     9.63927  497.   RY (21) O 27
  534.  0.00000    14.63542  498.   RY (22) O 27
  535.  0.00000     5.40693  499.   RY (23) O 27
  536.  0.00000     6.04998  500.   RY (24) O 27
  537.  0.00000     6.73299  501.   RY (25) O 27
  538.  0.00000     7.74798  502.   RY (26) O 27
  539.  0.00000     4.57319  519.   RY (17) N 28
  540.  0.00000     3.49233  520.   RY (18) N 28
  541.  0.00000     4.58997  521.   RY (19) N 28
  542.  0.00000    20.36493  522.   RY (20) N 28
  543.  0.00000     5.03507  523.   RY (21) N 28
  544.  0.00000     2.63910  539.   RY (11) O 29
  545.  0.00000     3.12612  540.   RY (12) O 29
  546.  0.00000     3.70290  565.   RY (11) O 30
  547.  0.00000     2.64863  566.   RY (12) O 30
  548.  0.00000     4.28227  524.   RY (22) N 28
  549.  0.00000     6.39700  525.   RY (23) N 28
  550.  0.00000     4.85850  526.   RY (24) N 28
  551.  0.00000     4.89572  527.   RY (25) N 28
  552.  0.00000     9.05675  528.   RY (26) N 28
  553.  0.00000     6.10256  541.   RY (13) O 29
  554.  0.00000     3.05404  542.   RY (14) O 29
  555.  0.00000     5.70981  543.   RY (15) O 29
  556.  0.00000     6.52879  544.   RY (16) O 29
  557.  0.00000    10.48010  545.   RY (17) O 29
  558.  0.00000    22.95252  546.   RY (18) O 29
  559.  0.00000     6.60301  547.   RY (19) O 29
  560.  0.00000     6.21108  548.   RY (20) O 29
  561.  0.00000     6.80609  549.   RY (21) O 29
  562.  0.00000    12.38679  550.   RY (22) O 29
  563.  0.00000     5.45455  551.   RY (23) O 29
  564.  0.00000     7.79699  552.   RY (24) O 29
  565.  0.00000     5.80966  553.   RY (25) O 29
  566.  0.00000     5.94098  554.   RY (26) O 29
  567.  0.00000     6.30112  567.   RY (13) O 30
  568.  0.00000    14.64054  568.   RY (14) O 30
  569.  0.00000     6.15482  569.   RY (15) O 30
  570.  0.00000     3.12463  570.   RY (16) O 30
  571.  0.00000     5.93895  571.   RY (17) O 30
  572.  0.00000     6.24511  572.   RY (18) O 30
  573.  0.00000    21.28197  573.   RY (19) O 30
  574.  0.00000     5.89800  574.   RY (20) O 30
  575.  0.00000     6.79764  575.   RY (21) O 30
  576.  0.00000     5.96094  576.   RY (22) O 30
  577.  0.00000     5.63442  577.   RY (23) O 30
  578.  0.00000     5.45726  578.   RY (24) O 30
  579.  0.00000     8.62086  579.   RY (25) O 30
  580.  0.00000     9.71245  580.   RY (26) O 30

 Maximum scratch memory used by NBO was 2960212 words
 Maximum scratch memory used by G09NBO was 2193562 words

 Read Unf file /home/aloke/aloke/prakash/Gau-17925.EUF:
 Label Gaussian matrix elements                                         IVers= 1 NLab= 2 Version=AM64L-G09RevD.01
 Title Energy Optimisation and Frequency calculation                   
 NAtoms=    30 NBasis=   580 NBsUse=   580 ICharg=     0 Multip=     1 NE=   118 Len12L=8 Len4L=8
 Label GAUSSIAN SCALARS                                                 NI= 1 NR= 1 NTot=       1 LenBuf=    2000 N=    1000       1       1       1       1
 Label ALPHA ORBITAL ENERGIES                                           NI= 0 NR= 1 NTot=     580 LenBuf=    4000 N=     580       0       0       0       0
 Label ALPHA MO COEFFICIENTS                                            NI= 0 NR= 1 NTot=  336400 LenBuf=    4000 N=     580     580       0       0       0
 Store file  524 Len=  336400.
 Label NPA CHARGES                                                      NI= 0 NR= 1 NTot=      30 LenBuf=    4000 N=      30       0       0       0       0
 Recovered energy= -762.990914337     dipole=      0.000000000000      0.000000000000      0.000000000000
 1\1\GINC-CN033\SP\RB3LYP\def2TZVP\C11H14N2O3\ALOKE\14-Jul-2021\0\\# b
 3lyp/def2tzvp empiricaldispersion=gd3 pop=nbo6read pop=saveNBOs int=(g
 rid=ultrafine) scf=(tight,maxcycle=300)\\Energy Optimisation and Frequ
 ency calculation\\0,1\C,0,0.023743,-0.597941,0.297981\C,0,-1.327832,-0
 .913155,0.273045\C,0,-2.281596,0.062201,0.010596\C,0,-1.916857,1.37267
 8,-0.251015\C,0,-0.573552,1.704387,-0.212189\C,0,0.406192,0.747902,0.0
 83182\H,0,-1.655102,-1.931577,0.425359\H,0,-2.674919,2.111991,-0.46147
 9\H,0,-0.28532,2.729942,-0.392149\N,0,1.773822,1.087262,0.132538\C,0,2
 .216354,2.226566,-0.656176\H,0,1.947046,3.194687,-0.210317\H,0,3.30397
 9,2.1888,-0.733053\H,0,1.797041,2.173775,-1.660263\C,0,2.383702,1.0805
 94,1.46467\H,0,2.192435,2.029935,1.982577\H,0,3.458544,0.925955,1.3754
 17\H,0,1.975274,0.278525,2.071637\C,0,1.031246,-1.717373,0.418676\H,0,
 0.483693,-2.646203,0.576789\H,0,1.691888,-1.601396,1.278947\C,0,1.9186
 25,-1.865385,-0.840103\H,0,2.244753,-2.90732,-0.9171\H,0,1.349768,-1.6
 32791,-1.741891\C,0,3.187459,-1.041672,-0.790861\H,0,3.386227,-0.39322
 2,-1.666646\O,0,3.99366,-1.129557,0.103805\N,0,-3.702088,-0.310369,-0.
 014167\O,0,-4.515322,0.560961,-0.289318\O,0,-3.993632,-1.470425,0.2426
 06\\Version=AM64L-G09RevD.01\State=1-A\HF=-762.9909143\RMSD=7.957e-09\
 Dipole=1.4850228,0.8175956,-0.3821298\Quadrupole=-20.2911028,11.586299
 3,8.7048036,1.3771007,-2.7204142,0.8185019\PG=C01 [X(C11H14N2O3)]\\@


 THERE ARE TWO THINGS THAT EVERYBODY THINKS THEY CAN DO BETTER THAN
 ANYONE ELSE - PUNCH THE FIRE, AND EDIT A DAILY PAPER.
 -- UNCLE ESEK, "CENTURY MAGAZINE", 1885
 Job cpu time:       0 days  1 hours 11 minutes 47.6 seconds.
 File lengths (MBytes):  RWF=    131 Int=      0 D2E=      0 Chk=     13 Scr=      1
 Normal termination of Gaussian 09 at Wed Jul 14 10:07:55 2021.
