 Entering Gaussian System, Link 0=g09
 Initial command:
 /home/apps/iiser/g09/g09/l1.exe "/home/aloke/aloke/prakash/Gau-42558.inp" -scrdir="/home/aloke/aloke/prakash/"
 Entering Link 1 = /home/apps/iiser/g09/g09/l1.exe PID=     42559.
  
 Copyright (c) 1988,1990,1992,1993,1995,1998,2003,2009,2013,
            Gaussian, Inc.  All Rights Reserved.
  
 This is part of the Gaussian(R) 09 program.  It is based on
 the Gaussian(R) 03 system (copyright 2003, Gaussian, Inc.),
 the Gaussian(R) 98 system (copyright 1998, Gaussian, Inc.),
 the Gaussian(R) 94 system (copyright 1995, Gaussian, Inc.),
 the Gaussian 92(TM) system (copyright 1992, Gaussian, Inc.),
 the Gaussian 90(TM) system (copyright 1990, Gaussian, Inc.),
 the Gaussian 88(TM) system (copyright 1988, Gaussian, Inc.),
 the Gaussian 86(TM) system (copyright 1986, Carnegie Mellon
 University), and the Gaussian 82(TM) system (copyright 1983,
 Carnegie Mellon University). Gaussian is a federally registered
 trademark of Gaussian, Inc.
  
 This software contains proprietary and confidential information,
 including trade secrets, belonging to Gaussian, Inc.
  
 This software is provided under written license and may be
 used, copied, transmitted, or stored only in accord with that
 written license.
  
 The following legend is applicable only to US Government
 contracts under FAR:
  
                    RESTRICTED RIGHTS LEGEND
  
 Use, reproduction and disclosure by the US Government is
 subject to restrictions as set forth in subparagraphs (a)
 and (c) of the Commercial Computer Software - Restricted
 Rights clause in FAR 52.227-19.
  
 Gaussian, Inc.
 340 Quinnipiac St., Bldg. 40, Wallingford CT 06492
  
  
 ---------------------------------------------------------------
 Warning -- This program may not be used in any manner that
 competes with the business of Gaussian, Inc. or will provide
 assistance to any competitor of Gaussian, Inc.  The licensee
 of this program is prohibited from giving any competitor of
 Gaussian, Inc. access to this program.  By using this program,
 the user acknowledges that Gaussian, Inc. is engaged in the
 business of creating and licensing software in the field of
 computational chemistry and represents and warrants to the
 licensee that it is not a competitor of Gaussian, Inc. and that
 it will not use this program in any manner prohibited above.
 ---------------------------------------------------------------
  

 Cite this work as:
 Gaussian 09, Revision D.01,
 M. J. Frisch, G. W. Trucks, H. B. Schlegel, G. E. Scuseria, 
 M. A. Robb, J. R. Cheeseman, G. Scalmani, V. Barone, B. Mennucci, 
 G. A. Petersson, H. Nakatsuji, M. Caricato, X. Li, H. P. Hratchian, 
 A. F. Izmaylov, J. Bloino, G. Zheng, J. L. Sonnenberg, M. Hada, 
 M. Ehara, K. Toyota, R. Fukuda, J. Hasegawa, M. Ishida, T. Nakajima, 
 Y. Honda, O. Kitao, H. Nakai, T. Vreven, J. A. Montgomery, Jr., 
 J. E. Peralta, F. Ogliaro, M. Bearpark, J. J. Heyd, E. Brothers, 
 K. N. Kudin, V. N. Staroverov, T. Keith, R. Kobayashi, J. Normand, 
 K. Raghavachari, A. Rendell, J. C. Burant, S. S. Iyengar, J. Tomasi, 
 M. Cossi, N. Rega, J. M. Millam, M. Klene, J. E. Knox, J. B. Cross, 
 V. Bakken, C. Adamo, J. Jaramillo, R. Gomperts, R. E. Stratmann, 
 O. Yazyev, A. J. Austin, R. Cammi, C. Pomelli, J. W. Ochterski, 
 R. L. Martin, K. Morokuma, V. G. Zakrzewski, G. A. Voth, 
 P. Salvador, J. J. Dannenberg, S. Dapprich, A. D. Daniels, 
 O. Farkas, J. B. Foresman, J. V. Ortiz, J. Cioslowski, 
 and D. J. Fox, Gaussian, Inc., Wallingford CT, 2013.
 
 ******************************************
 Gaussian 09:  AM64L-G09RevD.01 24-Apr-2013
                14-Jul-2021 
 ******************************************
 %LindaWorkers=cn008
 %chk=nitro_mod_bp31_n.chk
 %mem=128GB
 %nprocshared=48
 Will use up to   48 processors via shared memory.
 SetLPE:  input flags=" -opt "Tsnet.Node.lindarsharg: ssh" "
 SetLPE:    new flags=" -opt "Tsnet.Node.lindarsharg: ssh"  -nodelist 'cn008'"
 Will use up to    1 processors via Linda.
 ----------------------------------------------------------------------
 # b3lyp/def2tzvp empiricaldispersion=gd3 pop=nbo6read pop=saveNBOs int
 =(grid=ultrafine) scf=(tight,maxcycle=300)
 ----------------------------------------------------------------------
 1/38=1,163=2/1;
 2/12=2,17=6,18=5,40=1/2;
 3/5=44,7=101,11=2,16=1,25=1,30=1,74=-5,75=-5,124=31/1,2,3;
 4//1;
 5/5=2,7=300,32=2,38=5/2;
 6/7=2,8=2,9=2,10=2,28=1,40=2,73=1,113=1,114=1,124=2103/1,12;
 99/5=1,9=1/99;
 ---------------------------------------------
 Energy Optimisation and Frequency calculation
 ---------------------------------------------
 Symbolic Z-matrix:
 Charge =  0 Multiplicity = 1
 C                    -0.39464   0.26207   0.57012 
 C                     0.9831    0.43003   0.59783 
 C                     1.82331  -0.53813   0.06515 
 C                     1.31927  -1.68627  -0.52384 
 C                    -0.05223  -1.87204  -0.54039 
 C                    -0.92373  -0.92624   0.01479 
 H                     1.41159   1.34028   0.98898 
 H                     1.9934   -2.41928  -0.94072 
 H                    -0.44894  -2.77782  -0.97579 
 N                    -2.32642  -1.12001  -0.00361 
 C                    -2.86788  -1.9387   -1.07673 
 H                    -2.69917  -3.01711  -0.93533 
 H                    -3.94662  -1.77963  -1.12608 
 H                    -2.43357  -1.64108  -2.03047 
 C                    -2.92789  -1.45848   1.28569 
 H                    -2.79361  -2.52416   1.52396 
 H                    -3.998    -1.24331   1.26284 
 H                    -2.47608  -0.88274   2.08881 
 C                    -1.28321   1.39668   1.03132 
 H                    -0.67747   2.11633   1.58229 
 H                    -2.05476   1.04567   1.71431 
 C                    -1.96776   2.11722  -0.13614 
 H                    -2.76889   2.77471   0.22654 
 H                    -2.46224   1.40353  -0.80221 
 C                    -1.05099   2.98576  -0.95638 
 H                    -1.52077   3.43326  -1.85889 
 O                     0.09836   3.22156  -0.68729 
 N                     3.27773  -0.33158   0.10943 
 O                     3.98677  -1.15229  -0.45791 
 O                     3.69884   0.64336   0.71427 
 
                          Input orientation:                          
 ---------------------------------------------------------------------
 Center     Atomic      Atomic             Coordinates (Angstroms)
 Number     Number       Type             X           Y           Z
 ---------------------------------------------------------------------
      1          6           0       -0.394643    0.262066    0.570120
      2          6           0        0.983100    0.430030    0.597834
      3          6           0        1.823307   -0.538127    0.065147
      4          6           0        1.319272   -1.686265   -0.523844
      5          6           0       -0.052231   -1.872036   -0.540393
      6          6           0       -0.923725   -0.926244    0.014790
      7          1           0        1.411593    1.340278    0.988976
      8          1           0        1.993399   -2.419279   -0.940720
      9          1           0       -0.448942   -2.777820   -0.975790
     10          7           0       -2.326421   -1.120008   -0.003611
     11          6           0       -2.867876   -1.938698   -1.076725
     12          1           0       -2.699165   -3.017108   -0.935334
     13          1           0       -3.946622   -1.779627   -1.126084
     14          1           0       -2.433573   -1.641075   -2.030466
     15          6           0       -2.927893   -1.458483    1.285688
     16          1           0       -2.793614   -2.524161    1.523960
     17          1           0       -3.997995   -1.243309    1.262843
     18          1           0       -2.476081   -0.882740    2.088806
     19          6           0       -1.283206    1.396683    1.031318
     20          1           0       -0.677467    2.116329    1.582289
     21          1           0       -2.054755    1.045667    1.714312
     22          6           0       -1.967761    2.117222   -0.136137
     23          1           0       -2.768887    2.774708    0.226540
     24          1           0       -2.462236    1.403529   -0.802205
     25          6           0       -1.050988    2.985755   -0.956375
     26          1           0       -1.520771    3.433262   -1.858890
     27          8           0        0.098364    3.221562   -0.687292
     28          7           0        3.277727   -0.331576    0.109429
     29          8           0        3.986774   -1.152293   -0.457914
     30          8           0        3.698842    0.643358    0.714271
 ---------------------------------------------------------------------
                    Distance matrix (angstroms):
                    1          2          3          4          5
     1  C    0.000000
     2  C    1.388220   0.000000
     3  C    2.411350   1.388176   0.000000
     4  C    2.816071   2.418652   1.385346   0.000000
     5  C    2.429995   2.768931   2.379839   1.384126   0.000000
     6  C    1.414355   2.411514   2.774771   2.428743   1.400804
     7  H    2.144871   1.079421   2.133395   3.384835   3.847169
     8  H    3.895509   3.392111   2.139961   1.079603   2.155073
     9  H    3.410820   3.849330   3.356023   2.126577   1.080460
    10  N    2.443576   3.703685   4.190890   3.725905   2.454714
    11  C    3.697613   4.821311   5.027193   4.231029   2.867046
    12  H    4.281378   5.271854   5.253481   4.253035   2.910915
    13  H    4.434205   5.670682   6.020999   5.301042   3.939271
    14  H    3.813427   4.782373   4.871254   4.044230   2.818590
    15  C    3.144786   4.397214   4.991060   4.622197   3.431476
    16  H    3.798412   4.883495   5.233395   4.670268   3.493136
    17  H    3.966127   5.296566   5.984924   5.626881   4.383607
    18  H    2.819463   3.989022   4.764314   4.677210   3.710316
    19  C    1.513144   2.501693   3.785155   4.323886   3.830157
    20  H    2.131377   2.563248   3.949902   4.783564   4.561113
    21  H    2.163141   3.294555   4.501946   4.884348   4.196044
    22  C    2.532805   3.477486   4.632881   5.041965   4.443744
    23  H    3.473968   4.439908   5.664730   6.097245   5.436969
    24  H    2.731511   3.844236   4.784162   4.891228   4.075045
    25  C    3.190526   3.617293   4.660775   5.256709   4.976815
    26  H    4.150270   4.617820   5.536850   6.004810   5.660497
    27  O    3.253115   3.197961   4.204385   5.060049   5.097941
    28  N    3.748459   2.466556   1.469681   2.464095   3.726111
    29  O    4.717423   3.555335   2.308979   2.721220   4.103461
    30  O    4.113731   2.726595   2.309740   3.552805   4.687423
                    6          7          8          9         10
     6  C    0.000000
     7  H    3.397038   0.000000
     8  H    3.413468   4.265735   0.000000
     9  H    2.152905   4.927538   2.468767   0.000000
    10  N    1.416135   4.583774   4.607290   2.686708   0.000000
    11  C    2.448712   5.773444   4.886865   2.562334   1.454304
    12  H    2.902867   6.291909   4.730495   2.263272   2.146167
    13  H    3.341820   6.551164   5.977237   3.640432   2.078484
    14  H    2.640776   5.726325   4.625065   2.518589   2.095503
    15  C    2.432108   5.172257   5.486268   3.605569   1.462404
    16  H    2.885727   5.736189   5.385271   3.436652   2.126826
    17  H    3.333062   6.001130   6.491178   4.467883   2.100778
    18  H    2.590993   4.611447   5.613843   4.134292   2.111138
    19  C    2.560966   2.695722   5.402466   4.706480   2.914294
    20  H    3.431464   2.306176   5.837023   5.527087   3.963333
    21  H    2.838316   3.553657   5.953369   4.943110   2.777627
    22  C    3.221098   3.645484   6.076017   5.193579   3.259733
    23  H    4.140834   4.485010   7.142784   6.136637   3.926520
    24  H    2.909010   4.268358   5.872455   4.644046   2.650365
    25  C    4.032753   3.543486   6.203461   5.794966   4.403610
    26  H    4.782513   4.592350   6.888009   6.364450   4.982309
    27  O    4.329189   2.841421   5.956045   6.031199   5.019585
    28  N    4.244383   2.655401   2.666611   4.588014   5.660466
    29  O    4.938375   3.864965   2.410788   4.752485   6.329602
    30  O    4.931638   2.406796   3.876503   5.636034   6.318909
                   11         12         13         14         15
    11  C    0.000000
    12  H    1.100647   0.000000
    13  H    1.091528   1.767454   0.000000
    14  H    1.089413   1.778572   1.768169   0.000000
    15  C    2.411473   2.722970   2.637724   3.357763   0.000000
    16  H    2.666804   2.509989   2.984375   3.680138   1.100215
    17  H    2.689668   3.108907   2.448928   3.667631   1.091760
    18  H    3.359931   3.708196   3.647248   4.188709   1.086560
    19  C    4.252034   5.035297   4.673020   4.463837   3.304795
    20  H    5.320854   6.064476   5.762042   5.500363   4.234580
    21  H    4.166232   4.893059   4.430496   4.624440   2.686421
    22  C    4.259742   5.247381   4.481218   4.234414   3.965994
    23  H    4.891267   5.907618   4.894754   4.970478   4.366576
    24  H    3.377926   4.428983   3.527149   3.283148   3.573128
    25  C    5.250315   6.225054   5.578742   4.946996   5.319856
    26  H    5.593248   6.621846   5.796203   5.158638   5.983104
    27  O    5.964773   6.841688   6.447196   5.644472   5.912166
    28  N    6.462061   6.635273   7.470914   6.238019   6.415857
    29  O    6.927307   6.957532   7.986161   6.628173   7.137683
    30  O    7.279867   7.553456   8.228662   7.096388   6.975519
                   16         17         18         19         20
    16  H    0.000000
    17  H    1.777441   0.000000
    18  H    1.764693   1.768742   0.000000
    19  C    4.230490   3.793842   2.781546   0.000000
    20  H    5.100552   4.734461   3.533552   1.090128   0.000000
    21  H    3.650455   3.036349   2.009108   1.088568   1.749477
    22  C    4.998039   4.167993   3.769421   1.533213   2.148918
    23  H    5.455449   4.327712   4.114693   2.180337   2.577898
    24  H    4.576855   3.691711   3.685806   2.179900   3.062564
    25  C    6.288719   5.612019   5.125356   2.555386   2.709287
    26  H    6.968120   6.144280   5.926617   3.543641   3.779840
    27  O    6.801949   6.365395   5.583886   2.862261   2.640919
    28  N    6.608291   7.422786   6.109666   4.963755   4.879049
    29  O    7.196076   8.168588   6.951758   6.040512   6.049914
    30  O    7.269165   7.943661   6.507534   5.048645   4.698423
                   21         22         23         24         25
    21  H    0.000000
    22  C    2.140084   0.000000
    23  H    2.390195   1.098010   0.000000
    24  H    2.574289   1.094308   1.741403   0.000000
    25  C    3.450226   1.505859   2.096427   2.125754   0.000000
    26  H    4.330534   2.213513   2.518036   2.474420   1.111527
    27  O    3.890777   2.406701   3.042350   3.142471   1.203753
    28  N    5.736533   5.794140   6.798842   6.065381   5.556833
    29  O    6.785990   6.800717   7.844028   6.945538   6.538421
    30  O    5.853701   5.916575   6.827302   6.390340   5.553266
                   26         27         28         29         30
    26  H    0.000000
    27  O    2.009741   0.000000
    28  N    6.408890   4.834036   0.000000
    29  O    7.302267   5.856872   1.224011   0.000000
    30  O    6.453610   4.644885   1.222157   2.163628   0.000000
 Stoichiometry    C11H14N2O3
 Framework group  C1[X(C11H14N2O3)]
 Deg. of freedom    84
 Full point group                 C1      NOp   1
 Largest Abelian subgroup         C1      NOp   1
 Largest concise Abelian subgroup C1      NOp   1
                         Standard orientation:                         
 ---------------------------------------------------------------------
 Center     Atomic      Atomic             Coordinates (Angstroms)
 Number     Number       Type             X           Y           Z
 ---------------------------------------------------------------------
      1          6           0       -0.394643    0.262066    0.570120
      2          6           0        0.983100    0.430030    0.597834
      3          6           0        1.823307   -0.538127    0.065147
      4          6           0        1.319272   -1.686265   -0.523844
      5          6           0       -0.052231   -1.872036   -0.540393
      6          6           0       -0.923725   -0.926244    0.014790
      7          1           0        1.411593    1.340278    0.988976
      8          1           0        1.993399   -2.419279   -0.940720
      9          1           0       -0.448942   -2.777820   -0.975790
     10          7           0       -2.326421   -1.120008   -0.003611
     11          6           0       -2.867876   -1.938698   -1.076725
     12          1           0       -2.699165   -3.017108   -0.935334
     13          1           0       -3.946622   -1.779627   -1.126084
     14          1           0       -2.433573   -1.641075   -2.030466
     15          6           0       -2.927893   -1.458483    1.285688
     16          1           0       -2.793614   -2.524161    1.523960
     17          1           0       -3.997995   -1.243309    1.262843
     18          1           0       -2.476081   -0.882740    2.088806
     19          6           0       -1.283206    1.396683    1.031318
     20          1           0       -0.677467    2.116329    1.582289
     21          1           0       -2.054755    1.045667    1.714312
     22          6           0       -1.967761    2.117222   -0.136137
     23          1           0       -2.768887    2.774708    0.226540
     24          1           0       -2.462236    1.403529   -0.802205
     25          6           0       -1.050988    2.985755   -0.956375
     26          1           0       -1.520771    3.433262   -1.858890
     27          8           0        0.098364    3.221562   -0.687292
     28          7           0        3.277727   -0.331576    0.109429
     29          8           0        3.986774   -1.152293   -0.457914
     30          8           0        3.698842    0.643358    0.714271
 ---------------------------------------------------------------------
 Rotational constants (GHZ):      0.6773475      0.3985907      0.2845824
 Standard basis: def2TZVP (5D, 7F)
 There are   660 symmetry adapted cartesian basis functions of A   symmetry.
 There are   580 symmetry adapted basis functions of A   symmetry.
   580 basis functions,   928 primitive gaussians,   660 cartesian basis functions
    59 alpha electrons       59 beta electrons
       nuclear repulsion energy      1109.4142913045 Hartrees.
 NAtoms=   30 NActive=   30 NUniq=   30 SFac= 1.00D+00 NAtFMM=   60 NAOKFM=F Big=F
 Integral buffers will be    131072 words long.
 Raffenetti 2 integral format.
 Two-electron integral symmetry is turned on.
 Nuclear repulsion after empirical dispersion term =     1109.3837404957 Hartrees.
 One-electron integrals computed using PRISM.
   1 Symmetry operations used in ECPInt.
 ECPInt:  NShTT=   27028 NPrTT=   82204 LenC2=   24771 LenP2D=   55351.
 LDataN:  DoStor=T MaxTD1= 6 Len=  172
 NBasis=   580 RedAO= T EigKep=  5.55D-06  NBF=   580
 NBsUse=   580 1.00D-06 EigRej= -1.00D+00 NBFU=   580
 ExpMin= 9.52D-02 ExpMax= 2.70D+04 ExpMxC= 9.22D+02 IAcc=3 IRadAn=         5 AccDes= 0.00D+00
 Harris functional with IExCor=  402 and IRadAn=       5 diagonalized for initial guess.
 HarFok:  IExCor=  402 AccDes= 0.00D+00 IRadAn=         5 IDoV= 1 UseB2=F ITyADJ=14
 ICtDFT=  3500011 ScaDFX=  1.000000  1.000000  1.000000  1.000000
 FoFCou: FMM=F IPFlag=           0 FMFlag=      100000 FMFlg1=           0
         NFxFlg=           0 DoJE=T BraDBF=F KetDBF=T FulRan=T
         wScrn=  0.000000 ICntrl=     500 IOpCl=  0 I1Cent=   200000004 NGrid=           0
         NMat0=    1 NMatS0=      1 NMatT0=    0 NMatD0=    1 NMtDS0=    0 NMtDT0=    0
 Petite list used in FoFCou.
 Keep R1 ints in memory in canonical form, NReq=14340362693.
 Requested convergence on RMS density matrix=1.00D-08 within 300 cycles.
 Requested convergence on MAX density matrix=1.00D-06.
 Requested convergence on             energy=1.00D-06.
 No special actions if energy rises.
 Integral accuracy reduced to 1.0D-05 until final iterations.
 Initial convergence to 1.0D-05 achieved.  Increase integral accuracy.
 SCF Done:  E(RB3LYP) =  -762.989249778     A.U. after   15 cycles
            NFock= 15  Conv=0.63D-08     -V/T= 2.0048

 **********************************************************************

            Population analysis using the SCF density.

 **********************************************************************

 Orbital symmetries:
       Occupied  (A) (A) (A) (A) (A) (A) (A) (A) (A) (A) (A) (A)
                 (A) (A) (A) (A) (A) (A) (A) (A) (A) (A) (A) (A)
                 (A) (A) (A) (A) (A) (A) (A) (A) (A) (A) (A) (A)
                 (A) (A) (A) (A) (A) (A) (A) (A) (A) (A) (A) (A)
                 (A) (A) (A) (A) (A) (A) (A) (A) (A) (A) (A)
       Virtual   (A) (A) (A) (A) (A) (A) (A) (A) (A) (A) (A) (A)
                 (A) (A) (A) (A) (A) (A) (A) (A) (A) (A) (A) (A)
                 (A) (A) (A) (A) (A) (A) (A) (A) (A) (A) (A) (A)
                 (A) (A) (A) (A) (A) (A) (A) (A) (A) (A) (A) (A)
                 (A) (A) (A) (A) (A) (A) (A) (A) (A) (A) (A) (A)
                 (A) (A) (A) (A) (A) (A) (A) (A) (A) (A) (A) (A)
                 (A) (A) (A) (A) (A) (A) (A) (A) (A) (A) (A) (A)
                 (A) (A) (A) (A) (A) (A) (A) (A) (A) (A) (A) (A)
                 (A) (A) (A) (A) (A) (A) (A) (A) (A) (A) (A) (A)
                 (A) (A) (A) (A) (A) (A) (A) (A) (A) (A) (A) (A)
                 (A) (A) (A) (A) (A) (A) (A) (A) (A) (A) (A) (A)
                 (A) (A) (A) (A) (A) (A) (A) (A) (A) (A) (A) (A)
                 (A) (A) (A) (A) (A) (A) (A) (A) (A) (A) (A) (A)
                 (A) (A) (A) (A) (A) (A) (A) (A) (A) (A) (A) (A)
                 (A) (A) (A) (A) (A) (A) (A) (A) (A) (A) (A) (A)
                 (A) (A) (A) (A) (A) (A) (A) (A) (A) (A) (A) (A)
                 (A) (A) (A) (A) (A) (A) (A) (A) (A) (A) (A) (A)
                 (A) (A) (A) (A) (A) (A) (A) (A) (A) (A) (A) (A)
                 (A) (A) (A) (A) (A) (A) (A) (A) (A) (A) (A) (A)
                 (A) (A) (A) (A) (A) (A) (A) (A) (A) (A) (A) (A)
                 (A) (A) (A) (A) (A) (A) (A) (A) (A) (A) (A) (A)
                 (A) (A) (A) (A) (A) (A) (A) (A) (A) (A) (A) (A)
                 (A) (A) (A) (A) (A) (A) (A) (A) (A) (A) (A) (A)
                 (A) (A) (A) (A) (A) (A) (A) (A) (A) (A) (A) (A)
                 (A) (A) (A) (A) (A) (A) (A) (A) (A) (A) (A) (A)
                 (A) (A) (A) (A) (A) (A) (A) (A) (A) (A) (A) (A)
                 (A) (A) (A) (A) (A) (A) (A) (A) (A) (A) (A) (A)
                 (A) (A) (A) (A) (A) (A) (A) (A) (A) (A) (A) (A)
                 (A) (A) (A) (A) (A) (A) (A) (A) (A) (A) (A) (A)
                 (A) (A) (A) (A) (A) (A) (A) (A) (A) (A) (A) (A)
                 (A) (A) (A) (A) (A) (A) (A) (A) (A) (A) (A) (A)
                 (A) (A) (A) (A) (A) (A) (A) (A) (A) (A) (A) (A)
                 (A) (A) (A) (A) (A) (A) (A) (A) (A) (A) (A) (A)
                 (A) (A) (A) (A) (A) (A) (A) (A) (A) (A) (A) (A)
                 (A) (A) (A) (A) (A) (A) (A) (A) (A) (A) (A) (A)
                 (A) (A) (A) (A) (A) (A) (A) (A) (A) (A) (A) (A)
                 (A) (A) (A) (A) (A) (A) (A) (A) (A) (A) (A) (A)
                 (A) (A) (A) (A) (A) (A) (A) (A) (A) (A) (A) (A)
                 (A) (A) (A) (A) (A) (A) (A) (A) (A) (A) (A) (A)
                 (A) (A) (A) (A) (A) (A) (A) (A) (A) (A) (A) (A)
                 (A) (A) (A) (A) (A) (A) (A) (A) (A) (A) (A) (A)
                 (A) (A) (A) (A) (A) (A) (A) (A) (A) (A) (A) (A)
                 (A) (A) (A) (A) (A) (A) (A) (A) (A) (A) (A) (A)
                 (A) (A) (A) (A) (A)
 The electronic state is 1-A.
 Alpha  occ. eigenvalues --  -19.15066 -19.15015 -19.13653 -14.54497 -14.34671
 Alpha  occ. eigenvalues --  -10.27155 -10.23546 -10.23058 -10.21653 -10.21490
 Alpha  occ. eigenvalues --  -10.20328 -10.20013 -10.19737 -10.19577 -10.19490
 Alpha  occ. eigenvalues --  -10.19371  -1.22471  -1.06381  -1.05042  -0.96561
 Alpha  occ. eigenvalues --   -0.88721  -0.82644  -0.79606  -0.76855  -0.73623
 Alpha  occ. eigenvalues --   -0.71757  -0.69032  -0.64835  -0.62352  -0.58921
 Alpha  occ. eigenvalues --   -0.56816  -0.55108  -0.53291  -0.52870  -0.52452
 Alpha  occ. eigenvalues --   -0.50558  -0.49144  -0.49066  -0.48079  -0.46041
 Alpha  occ. eigenvalues --   -0.45746  -0.44878  -0.44180  -0.42252  -0.41780
 Alpha  occ. eigenvalues --   -0.41627  -0.40074  -0.39799  -0.38443  -0.37728
 Alpha  occ. eigenvalues --   -0.37297  -0.36153  -0.31145  -0.30831  -0.29626
 Alpha  occ. eigenvalues --   -0.29142  -0.28135  -0.26531  -0.23676
 Alpha virt. eigenvalues --   -0.08758  -0.04065  -0.03184  -0.00538   0.01207
 Alpha virt. eigenvalues --    0.03643   0.04594   0.05452   0.06406   0.06642
 Alpha virt. eigenvalues --    0.07738   0.08107   0.08580   0.09175   0.09996
 Alpha virt. eigenvalues --    0.10942   0.11159   0.12085   0.12420   0.13073
 Alpha virt. eigenvalues --    0.13821   0.14512   0.15371   0.16537   0.17381
 Alpha virt. eigenvalues --    0.17465   0.18431   0.19480   0.20470   0.20859
 Alpha virt. eigenvalues --    0.21986   0.22724   0.23231   0.24028   0.24683
 Alpha virt. eigenvalues --    0.25199   0.25385   0.26312   0.26765   0.27804
 Alpha virt. eigenvalues --    0.28336   0.28909   0.30037   0.30650   0.30823
 Alpha virt. eigenvalues --    0.32436   0.32644   0.33055   0.33471   0.34460
 Alpha virt. eigenvalues --    0.35039   0.35865   0.36735   0.36916   0.37835
 Alpha virt. eigenvalues --    0.38272   0.38621   0.39307   0.40022   0.40087
 Alpha virt. eigenvalues --    0.40502   0.40974   0.41394   0.41875   0.42440
 Alpha virt. eigenvalues --    0.43132   0.43269   0.43559   0.44824   0.45230
 Alpha virt. eigenvalues --    0.45468   0.45908   0.46608   0.47194   0.47242
 Alpha virt. eigenvalues --    0.47764   0.48519   0.49418   0.49913   0.50884
 Alpha virt. eigenvalues --    0.50972   0.51479   0.53060   0.53597   0.54261
 Alpha virt. eigenvalues --    0.55486   0.56987   0.57204   0.58399   0.58463
 Alpha virt. eigenvalues --    0.59181   0.60601   0.60846   0.61712   0.63399
 Alpha virt. eigenvalues --    0.64242   0.64735   0.65174   0.65788   0.67469
 Alpha virt. eigenvalues --    0.67618   0.68898   0.69644   0.70715   0.71612
 Alpha virt. eigenvalues --    0.72246   0.73270   0.74572   0.75280   0.76287
 Alpha virt. eigenvalues --    0.77578   0.78209   0.78460   0.80343   0.81533
 Alpha virt. eigenvalues --    0.83478   0.84068   0.84613   0.86301   0.87230
 Alpha virt. eigenvalues --    0.87569   0.88696   0.89677   0.90511   0.91090
 Alpha virt. eigenvalues --    0.93324   0.94267   0.94401   0.96141   0.97879
 Alpha virt. eigenvalues --    0.98423   0.99549   1.01842   1.02271   1.03280
 Alpha virt. eigenvalues --    1.04025   1.05185   1.05889   1.06805   1.07180
 Alpha virt. eigenvalues --    1.08891   1.09166   1.10262   1.10444   1.12623
 Alpha virt. eigenvalues --    1.14527   1.15478   1.17305   1.17678   1.19580
 Alpha virt. eigenvalues --    1.19776   1.20977   1.22454   1.25240   1.25485
 Alpha virt. eigenvalues --    1.26678   1.28223   1.29662   1.30787   1.31707
 Alpha virt. eigenvalues --    1.33073   1.34244   1.35459   1.36654   1.38614
 Alpha virt. eigenvalues --    1.40439   1.40921   1.42099   1.42275   1.44185
 Alpha virt. eigenvalues --    1.44733   1.46510   1.47213   1.48533   1.48783
 Alpha virt. eigenvalues --    1.49693   1.50471   1.51446   1.51919   1.52610
 Alpha virt. eigenvalues --    1.53533   1.53861   1.54418   1.55822   1.56014
 Alpha virt. eigenvalues --    1.56639   1.58409   1.59097   1.59535   1.60026
 Alpha virt. eigenvalues --    1.61465   1.62710   1.63333   1.65206   1.66111
 Alpha virt. eigenvalues --    1.67238   1.68569   1.69638   1.70331   1.70845
 Alpha virt. eigenvalues --    1.72615   1.73192   1.74483   1.76023   1.76803
 Alpha virt. eigenvalues --    1.77681   1.80277   1.80821   1.81741   1.84071
 Alpha virt. eigenvalues --    1.85980   1.87258   1.87973   1.89048   1.89827
 Alpha virt. eigenvalues --    1.91702   1.92062   1.93467   1.94716   1.95484
 Alpha virt. eigenvalues --    1.96126   1.97743   1.99087   2.00577   2.01442
 Alpha virt. eigenvalues --    2.02856   2.04761   2.05147   2.06129   2.07861
 Alpha virt. eigenvalues --    2.08969   2.09458   2.10968   2.12133   2.12899
 Alpha virt. eigenvalues --    2.13899   2.15119   2.16163   2.16859   2.17419
 Alpha virt. eigenvalues --    2.18126   2.18950   2.20280   2.23508   2.24325
 Alpha virt. eigenvalues --    2.25192   2.26266   2.27864   2.28188   2.28862
 Alpha virt. eigenvalues --    2.30520   2.32104   2.33191   2.34051   2.36677
 Alpha virt. eigenvalues --    2.38238   2.39179   2.41330   2.41860   2.43838
 Alpha virt. eigenvalues --    2.44150   2.45469   2.47293   2.49059   2.50384
 Alpha virt. eigenvalues --    2.51121   2.51599   2.52557   2.53411   2.53945
 Alpha virt. eigenvalues --    2.55330   2.56587   2.57814   2.57933   2.59879
 Alpha virt. eigenvalues --    2.60898   2.61281   2.62087   2.62764   2.63334
 Alpha virt. eigenvalues --    2.64337   2.64938   2.65712   2.66777   2.69104
 Alpha virt. eigenvalues --    2.70261   2.71615   2.72318   2.73431   2.74099
 Alpha virt. eigenvalues --    2.74798   2.76288   2.76994   2.77379   2.78041
 Alpha virt. eigenvalues --    2.80576   2.81583   2.81948   2.82539   2.84713
 Alpha virt. eigenvalues --    2.85101   2.85827   2.87283   2.87811   2.89454
 Alpha virt. eigenvalues --    2.90010   2.91337   2.92070   2.94910   2.95270
 Alpha virt. eigenvalues --    2.97941   2.98800   3.00133   3.00753   3.01547
 Alpha virt. eigenvalues --    3.02423   3.03225   3.03931   3.05345   3.06342
 Alpha virt. eigenvalues --    3.07140   3.07933   3.09714   3.10268   3.10578
 Alpha virt. eigenvalues --    3.11645   3.12789   3.13284   3.13793   3.14446
 Alpha virt. eigenvalues --    3.15939   3.16886   3.17408   3.18852   3.20620
 Alpha virt. eigenvalues --    3.21184   3.22089   3.22428   3.22887   3.23930
 Alpha virt. eigenvalues --    3.24782   3.25624   3.26637   3.28427   3.29051
 Alpha virt. eigenvalues --    3.29947   3.30274   3.31504   3.32844   3.34004
 Alpha virt. eigenvalues --    3.35052   3.36240   3.36367   3.37339   3.38379
 Alpha virt. eigenvalues --    3.38510   3.40185   3.42013   3.43172   3.44123
 Alpha virt. eigenvalues --    3.45162   3.45709   3.47536   3.48848   3.49502
 Alpha virt. eigenvalues --    3.50140   3.50744   3.51435   3.52424   3.54509
 Alpha virt. eigenvalues --    3.56437   3.57524   3.58966   3.60293   3.60610
 Alpha virt. eigenvalues --    3.62355   3.65158   3.68165   3.68442   3.71090
 Alpha virt. eigenvalues --    3.72553   3.74154   3.75644   3.76280   3.78027
 Alpha virt. eigenvalues --    3.78311   3.79850   3.82028   3.85219   3.85354
 Alpha virt. eigenvalues --    3.85884   3.87519   3.88575   3.92788   3.96214
 Alpha virt. eigenvalues --    3.97733   3.99321   4.00587   4.00908   4.04630
 Alpha virt. eigenvalues --    4.06141   4.06963   4.08105   4.09246   4.11612
 Alpha virt. eigenvalues --    4.12297   4.16976   4.17528   4.19021   4.19956
 Alpha virt. eigenvalues --    4.20277   4.22682   4.23349   4.24835   4.26192
 Alpha virt. eigenvalues --    4.27132   4.28551   4.29391   4.31079   4.32006
 Alpha virt. eigenvalues --    4.35550   4.38860   4.40167   4.40621   4.42200
 Alpha virt. eigenvalues --    4.44263   4.46937   4.52729   4.54297   4.54813
 Alpha virt. eigenvalues --    4.58293   4.59735   4.60579   4.65536   4.67827
 Alpha virt. eigenvalues --    4.69049   4.71022   4.72928   4.73253   4.77103
 Alpha virt. eigenvalues --    4.80340   4.82382   4.88393   4.90274   4.91877
 Alpha virt. eigenvalues --    4.94194   4.95688   4.98899   5.00130   5.03881
 Alpha virt. eigenvalues --    5.07886   5.09698   5.13463   5.14460   5.15408
 Alpha virt. eigenvalues --    5.16881   5.18474   5.19120   5.20600   5.24655
 Alpha virt. eigenvalues --    5.25828   5.28899   5.31756   5.32140   5.34868
 Alpha virt. eigenvalues --    5.36870   5.41568   5.44954   5.48732   5.50028
 Alpha virt. eigenvalues --    5.53822   5.55479   5.58916   5.62015   5.64608
 Alpha virt. eigenvalues --    5.70427   5.73025   5.78508   5.82763   5.92350
 Alpha virt. eigenvalues --    5.98220   5.99058   6.10475   6.23989   6.28884
 Alpha virt. eigenvalues --    6.31168   6.33401   6.36333   6.40691   6.42100
 Alpha virt. eigenvalues --    6.42723   6.45645   6.47313   6.75984   6.79520
 Alpha virt. eigenvalues --    6.85870   6.88418   6.92968   6.94117   7.04654
 Alpha virt. eigenvalues --    7.13543   7.27734   7.42571   7.50048   7.54995
 Alpha virt. eigenvalues --   22.30152  22.38041  22.42673  22.49713  22.58017
 Alpha virt. eigenvalues --   22.71044  22.75525  22.82899  22.88268  23.02002
 Alpha virt. eigenvalues --   23.38108  32.52550  32.73413  43.78214  44.07368
 Alpha virt. eigenvalues --   44.12269
          Condensed to atoms (all electrons):
               1          2          3          4          5          6
     1  C    5.574346   0.067655   0.189658  -0.205099   0.136626   0.196004
     2  C    0.067655   5.698354   0.066648   0.104597  -0.284787   0.145682
     3  C    0.189658   0.066648   5.563935   0.177007   0.147566  -0.222719
     4  C   -0.205099   0.104597   0.177007   5.333584   0.215144   0.121926
     5  C    0.136626  -0.284787   0.147566   0.215144   5.405491   0.243977
     6  C    0.196004   0.145682  -0.222719   0.121926   0.243977   5.282122
     7  H   -0.074879   0.444008  -0.049144   0.014429  -0.008415   0.021481
     8  H   -0.003929   0.011976  -0.042415   0.425931  -0.056447   0.012308
     9  H    0.008070  -0.003540   0.016645  -0.047737   0.455173  -0.078927
    10  N   -0.109570   0.006892  -0.003709   0.011586  -0.085549   0.351751
    11  C    0.014251  -0.001375   0.000955  -0.003629   0.001331  -0.084390
    12  H   -0.002562  -0.000506   0.000241  -0.002160   0.007748  -0.013684
    13  H    0.000209   0.000154  -0.000033   0.000216   0.000464   0.008131
    14  H    0.003329   0.000557  -0.000479   0.001479  -0.014179   0.004602
    15  C    0.020474   0.005897  -0.000566   0.000365  -0.018490  -0.073916
    16  H   -0.001686  -0.001408   0.000179  -0.001500   0.007428  -0.004641
    17  H   -0.000129   0.000122  -0.000046   0.000190  -0.000819   0.012187
    18  H    0.004752   0.003308  -0.000307   0.000190   0.001301  -0.011664
    19  C    0.298121  -0.081240   0.019271  -0.005006   0.023530  -0.083883
    20  H   -0.064660   0.009787   0.001962   0.000334  -0.000852   0.003969
    21  H   -0.023617   0.012696  -0.002836   0.000962  -0.003002  -0.011493
    22  C    0.019547  -0.050542   0.012283  -0.004118   0.007782  -0.006549
    23  H    0.010462   0.000059  -0.000110   0.000034  -0.000190  -0.001040
    24  H   -0.001097   0.006324  -0.000404   0.000192  -0.002205  -0.012522
    25  C   -0.014301   0.004714  -0.002252   0.000983  -0.001393   0.000701
    26  H   -0.003001   0.003334  -0.000672   0.000247  -0.000448  -0.000353
    27  O   -0.025136   0.018841  -0.006538   0.001380  -0.001036  -0.000034
    28  N    0.008676  -0.060202   0.408822  -0.061081   0.006839  -0.001247
    29  O   -0.002730   0.021180  -0.168398   0.051500  -0.001778   0.001553
    30  O   -0.003424   0.038613  -0.157836   0.024614  -0.002104   0.001651
               7          8          9         10         11         12
     1  C   -0.074879  -0.003929   0.008070  -0.109570   0.014251  -0.002562
     2  C    0.444008   0.011976  -0.003540   0.006892  -0.001375  -0.000506
     3  C   -0.049144  -0.042415   0.016645  -0.003709   0.000955   0.000241
     4  C    0.014429   0.425931  -0.047737   0.011586  -0.003629  -0.002160
     5  C   -0.008415  -0.056447   0.455173  -0.085549   0.001331   0.007748
     6  C    0.021481   0.012308  -0.078927   0.351751  -0.084390  -0.013684
     7  H    0.483631  -0.000187   0.000017  -0.000107   0.000003  -0.000004
     8  H   -0.000187   0.488863  -0.006803  -0.000118  -0.000072   0.000030
     9  H    0.000017  -0.006803   0.545329  -0.005992   0.002823   0.005014
    10  N   -0.000107  -0.000118  -0.005992   6.652933   0.284044  -0.042607
    11  C    0.000003  -0.000072   0.002823   0.284044   4.929246   0.404998
    12  H   -0.000004   0.000030   0.005014  -0.042607   0.404998   0.616284
    13  H    0.000001  -0.000002  -0.000020  -0.044549   0.406279  -0.042567
    14  H    0.000007   0.000010  -0.004163  -0.040754   0.416919  -0.040408
    15  C    0.000070   0.000028  -0.000988   0.269639  -0.061592  -0.016817
    16  H   -0.000015   0.000009   0.000749  -0.041410  -0.012195   0.019822
    17  H    0.000004  -0.000001  -0.000079  -0.048993  -0.005814  -0.003362
    18  H    0.000054  -0.000002   0.000032  -0.034417   0.010081  -0.000733
    19  C   -0.016443   0.000131  -0.000231   0.027081  -0.002923   0.000759
    20  H    0.003134   0.000000   0.000011   0.000176  -0.000036   0.000003
    21  H    0.001159   0.000000  -0.000028  -0.006130   0.000243  -0.000115
    22  C   -0.006591  -0.000033   0.000050  -0.011143   0.002225  -0.000223
    23  H    0.000041   0.000000  -0.000002   0.000017  -0.000089   0.000000
    24  H    0.000122   0.000004   0.000033   0.022442  -0.001646   0.000635
    25  C    0.000743   0.000008  -0.000005   0.002787  -0.000164   0.000027
    26  H    0.000521   0.000001  -0.000003   0.000028  -0.000018   0.000000
    27  O    0.015137   0.000005  -0.000001  -0.000027  -0.000005   0.000000
    28  N   -0.007324  -0.007103  -0.000174   0.000008  -0.000002   0.000000
    29  O    0.001403   0.026840  -0.000142   0.000000   0.000000   0.000000
    30  O    0.026179   0.001319   0.000005   0.000001   0.000000   0.000000
              13         14         15         16         17         18
     1  C    0.000209   0.003329   0.020474  -0.001686  -0.000129   0.004752
     2  C    0.000154   0.000557   0.005897  -0.001408   0.000122   0.003308
     3  C   -0.000033  -0.000479  -0.000566   0.000179  -0.000046  -0.000307
     4  C    0.000216   0.001479   0.000365  -0.001500   0.000190   0.000190
     5  C    0.000464  -0.014179  -0.018490   0.007428  -0.000819   0.001301
     6  C    0.008131   0.004602  -0.073916  -0.004641   0.012187  -0.011664
     7  H    0.000001   0.000007   0.000070  -0.000015   0.000004   0.000054
     8  H   -0.000002   0.000010   0.000028   0.000009  -0.000001  -0.000002
     9  H   -0.000020  -0.004163  -0.000988   0.000749  -0.000079   0.000032
    10  N   -0.044549  -0.040754   0.269639  -0.041410  -0.048993  -0.034417
    11  C    0.406279   0.416919  -0.061592  -0.012195  -0.005814   0.010081
    12  H   -0.042567  -0.040408  -0.016817   0.019822  -0.003362  -0.000733
    13  H    0.559748  -0.014334  -0.001912  -0.004311   0.005154   0.000456
    14  H   -0.014334   0.538283   0.011750  -0.001181   0.000484  -0.000313
    15  C   -0.001912   0.011750   4.931632   0.390615   0.411549   0.417321
    16  H   -0.004311  -0.001181   0.390615   0.609203  -0.041946  -0.030643
    17  H    0.005154   0.000484   0.411549  -0.041946   0.570521  -0.020243
    18  H    0.000456  -0.000313   0.417321  -0.030643  -0.020243   0.538488
    19  C   -0.000553  -0.000917  -0.022687   0.003729  -0.000464  -0.014828
    20  H   -0.000002   0.000001   0.000359  -0.000006  -0.000017   0.000067
    21  H    0.000130   0.000072   0.001676  -0.000565  -0.000109   0.004379
    22  C    0.000519   0.000725   0.000077  -0.000074   0.000135   0.000621
    23  H    0.000002   0.000007   0.000192  -0.000004  -0.000054  -0.000081
    24  H   -0.001076  -0.001064  -0.000408   0.000324  -0.000572  -0.000246
    25  C   -0.000040  -0.000052  -0.000308   0.000028  -0.000029  -0.000095
    26  H    0.000003   0.000014  -0.000004   0.000000   0.000003  -0.000001
    27  O    0.000000   0.000002   0.000001   0.000000   0.000001  -0.000004
    28  N    0.000000   0.000001   0.000001  -0.000001   0.000000   0.000001
    29  O    0.000000   0.000000   0.000000   0.000000   0.000000   0.000000
    30  O    0.000000   0.000000   0.000000   0.000000   0.000000   0.000000
              19         20         21         22         23         24
     1  C    0.298121  -0.064660  -0.023617   0.019547   0.010462  -0.001097
     2  C   -0.081240   0.009787   0.012696  -0.050542   0.000059   0.006324
     3  C    0.019271   0.001962  -0.002836   0.012283  -0.000110  -0.000404
     4  C   -0.005006   0.000334   0.000962  -0.004118   0.000034   0.000192
     5  C    0.023530  -0.000852  -0.003002   0.007782  -0.000190  -0.002205
     6  C   -0.083883   0.003969  -0.011493  -0.006549  -0.001040  -0.012522
     7  H   -0.016443   0.003134   0.001159  -0.006591   0.000041   0.000122
     8  H    0.000131   0.000000   0.000000  -0.000033   0.000000   0.000004
     9  H   -0.000231   0.000011  -0.000028   0.000050  -0.000002   0.000033
    10  N    0.027081   0.000176  -0.006130  -0.011143   0.000017   0.022442
    11  C   -0.002923  -0.000036   0.000243   0.002225  -0.000089  -0.001646
    12  H    0.000759   0.000003  -0.000115  -0.000223   0.000000   0.000635
    13  H   -0.000553  -0.000002   0.000130   0.000519   0.000002  -0.001076
    14  H   -0.000917   0.000001   0.000072   0.000725   0.000007  -0.001064
    15  C   -0.022687   0.000359   0.001676   0.000077   0.000192  -0.000408
    16  H    0.003729  -0.000006  -0.000565  -0.000074  -0.000004   0.000324
    17  H   -0.000464  -0.000017  -0.000109   0.000135  -0.000054  -0.000572
    18  H   -0.014828   0.000067   0.004379   0.000621  -0.000081  -0.000246
    19  C    4.993234   0.432094   0.395369   0.171342  -0.026874  -0.041587
    20  H    0.432094   0.546348  -0.029133  -0.028876  -0.001726   0.005338
    21  H    0.395369  -0.029133   0.622572  -0.052333  -0.004311  -0.001472
    22  C    0.171342  -0.028876  -0.052333   5.652210   0.356136   0.360620
    23  H   -0.026874  -0.001726  -0.004311   0.356136   0.579662  -0.021873
    24  H   -0.041587   0.005338  -0.001472   0.360620  -0.021873   0.554572
    25  C   -0.001730  -0.005335   0.005892   0.134864  -0.014267  -0.005297
    26  H    0.020244   0.000591  -0.000022  -0.212527   0.005935   0.008129
    27  O    0.032649   0.004932   0.001198  -0.166073   0.003411   0.004436
    28  N   -0.000373  -0.000026   0.000009   0.000067  -0.000001   0.000002
    29  O   -0.000002   0.000000   0.000000  -0.000002   0.000000   0.000000
    30  O   -0.000357  -0.000031  -0.000004   0.000010   0.000000   0.000000
              25         26         27         28         29         30
     1  C   -0.014301  -0.003001  -0.025136   0.008676  -0.002730  -0.003424
     2  C    0.004714   0.003334   0.018841  -0.060202   0.021180   0.038613
     3  C   -0.002252  -0.000672  -0.006538   0.408822  -0.168398  -0.157836
     4  C    0.000983   0.000247   0.001380  -0.061081   0.051500   0.024614
     5  C   -0.001393  -0.000448  -0.001036   0.006839  -0.001778  -0.002104
     6  C    0.000701  -0.000353  -0.000034  -0.001247   0.001553   0.001651
     7  H    0.000743   0.000521   0.015137  -0.007324   0.001403   0.026179
     8  H    0.000008   0.000001   0.000005  -0.007103   0.026840   0.001319
     9  H   -0.000005  -0.000003  -0.000001  -0.000174  -0.000142   0.000005
    10  N    0.002787   0.000028  -0.000027   0.000008   0.000000   0.000001
    11  C   -0.000164  -0.000018  -0.000005  -0.000002   0.000000   0.000000
    12  H    0.000027   0.000000   0.000000   0.000000   0.000000   0.000000
    13  H   -0.000040   0.000003   0.000000   0.000000   0.000000   0.000000
    14  H   -0.000052   0.000014   0.000002   0.000001   0.000000   0.000000
    15  C   -0.000308  -0.000004   0.000001   0.000001   0.000000   0.000000
    16  H    0.000028   0.000000   0.000000  -0.000001   0.000000   0.000000
    17  H   -0.000029   0.000003   0.000001   0.000000   0.000000   0.000000
    18  H   -0.000095  -0.000001  -0.000004   0.000001   0.000000   0.000000
    19  C   -0.001730   0.020244   0.032649  -0.000373  -0.000002  -0.000357
    20  H   -0.005335   0.000591   0.004932  -0.000026   0.000000  -0.000031
    21  H    0.005892  -0.000022   0.001198   0.000009   0.000000  -0.000004
    22  C    0.134864  -0.212527  -0.166073   0.000067  -0.000002   0.000010
    23  H   -0.014267   0.005935   0.003411  -0.000001   0.000000   0.000000
    24  H   -0.005297   0.008129   0.004436   0.000002   0.000000   0.000000
    25  C    4.699660   0.455497   0.643277  -0.000041   0.000003   0.000000
    26  H    0.455497   0.698033  -0.051667  -0.000001   0.000000   0.000000
    27  O    0.643277  -0.051667   7.794399  -0.000147   0.000001  -0.000004
    28  N   -0.000041  -0.000001  -0.000147   5.513645   0.385855   0.393473
    29  O    0.000003   0.000000   0.000001   0.385855   8.129174  -0.123361
    30  O    0.000000   0.000000  -0.000004   0.393473  -0.123361   8.112272
 Mulliken charges:
               1
     1  C   -0.016358
     2  C   -0.187799
     3  C    0.053291
     4  C   -0.156559
     5  C   -0.178705
     6  C    0.199019
     7  H    0.150965
     8  H    0.149648
     9  H    0.114884
    10  N   -0.154309
    11  C   -0.299448
    12  H    0.110187
    13  H    0.127932
    14  H    0.139602
    15  C   -0.263960
    16  H    0.109500
    17  H    0.122326
    18  H    0.132526
    19  C   -0.117456
    20  H    0.121593
    21  H    0.088811
    22  C   -0.180129
    23  H    0.114664
    24  H    0.128296
    25  C    0.096124
    26  H    0.076138
    27  O   -0.268997
    28  N    0.420324
    29  O   -0.321096
    30  O   -0.311015
 Sum of Mulliken charges =   0.00000
 Mulliken charges with hydrogens summed into heavy atoms:
               1
     1  C   -0.016358
     2  C   -0.036834
     3  C    0.053291
     4  C   -0.006911
     5  C   -0.063821
     6  C    0.199019
    10  N   -0.154309
    11  C    0.078274
    15  C    0.100392
    19  C    0.092948
    22  C    0.062831
    25  C    0.172261
    27  O   -0.268997
    28  N    0.420324
    29  O   -0.321096
    30  O   -0.311015
 Electronic spatial extent (au):  <R**2>=           3923.8491
 Charge=              0.0000 electrons
 Dipole moment (field-independent basis, Debye):
    X=             -8.4327    Y=             -1.8227    Z=             -0.0754  Tot=              8.6278
 Quadrupole moment (field-independent basis, Debye-Ang):
   XX=           -108.0804   YY=            -94.0026   ZZ=            -91.9993
   XY=             -3.1254   XZ=              0.1854   YZ=              1.4785
 Traceless Quadrupole moment (field-independent basis, Debye-Ang):
   XX=            -10.0529   YY=              4.0248   ZZ=              6.0281
   XY=             -3.1254   XZ=              0.1854   YZ=              1.4785
 Octapole moment (field-independent basis, Debye-Ang**2):
  XXX=           -103.9111  YYY=            -13.9206  ZZZ=             -2.7592  XYY=            -23.9773
  XXY=              7.0198  XXZ=             -1.5184  XZZ=             -1.2406  YZZ=              4.6518
  YYZ=             -3.4906  XYZ=             -0.4136
 Hexadecapole moment (field-independent basis, Debye-Ang**3):
 XXXX=          -3293.6745 YYYY=          -1754.9733 ZZZZ=           -442.1783 XXXY=             47.3121
 XXXZ=             -6.3734 YYYX=            -67.9873 YYYZ=             23.7610 ZZZX=              4.3229
 ZZZY=             -7.3192 XXYY=           -757.2929 XXZZ=           -550.8605 YYZZ=           -348.2189
 XXYZ=            -24.3577 YYXZ=             18.6800 ZZXY=             -5.1156
 N-N= 1.109383740496D+03 E-N=-3.998654773352D+03  KE= 7.593351997664D+02
 Running external command "gaunbo6 R"
         input file       "/home/aloke/aloke/prakash/Gau-42559.EIn"
         output file      "/home/aloke/aloke/prakash/Gau-42559.EOu"
         message file     "/home/aloke/aloke/prakash/Gau-42559.EMs"
         fchk file        "/home/aloke/aloke/prakash/Gau-42559.EFC"
         mat. el file     "/home/aloke/aloke/prakash/Gau-42559.EUF"

 Writing Wrt12E file "/home/aloke/aloke/prakash/Gau-42559.EUF"
 Gaussian matrix elements                                         Version   1 NLab= 7 Len12L=8 Len4L=8
 Write GAUSSIAN SCALARS               from file   501 offset           0 to matrix element file.
 Write OVERLAP                        from file   514 offset           0 to matrix element file.
 Write CORE HAMILTONIAN ALPHA         from file   515 offset           0 to matrix element file.
 Write CORE HAMILTONIAN BETA          from file   515 offset      168490 to matrix element file.
 Write KINETIC ENERGY                 from file   516 offset           0 to matrix element file.
 Write ORTHOGONAL BASIS               from file   685 offset           0 to matrix element file.
 Write DIPOLE INTEGRALS               from file   518 offset           0 to matrix element file.
 Array DIP VEL INTEGRALS               on  file    572 does not exist.
 Array R X DEL INTEGRALS               on  file    572 does not exist.
 Write ALPHA ORBITAL ENERGIES         from file     0 offset           0 to matrix element file.
 Write ALPHA MO COEFFICIENTS          from file 10524 offset           0 to matrix element file.
 Write ALPHA DENSITY MATRIX           from file     0 offset           0 to matrix element file.
 Write ALPHA SCF DENSITY MATRIX       from file 10528 offset           0 to matrix element file.
 Write ALPHA FOCK MATRIX              from file 10536 offset           0 to matrix element file.
 No 2e integrals to process.
 Perform NBO analysis...

 *********************************** NBO 6.0 ***********************************
             N A T U R A L   A T O M I C   O R B I T A L   A N D
          N A T U R A L   B O N D   O R B I T A L   A N A L Y S I S
 ************************* Aloke Das Software (101058) *************************
  (c) Copyright 1996-2016 Board of Regents of the University of Wisconsin System
      on behalf of the Theoretical Chemistry Institute.  All rights reserved.

          Cite this program as:

          NBO 6.0.  E. D. Glendening, J. K. Badenhoop, A. E. Reed,
          J. E. Carpenter, J. A. Bohmann, C. M. Morales, C. R. Landis,
          and F. Weinhold (Theoretical Chemistry Institute, University
          of Wisconsin, Madison, WI, 2013); http://nbo6.chem.wisc.edu/

       /E2PERT / : Analyze NBO Fock matrix
                   Print threshold set to 0.1
       /AONBO  / : Checkpoint the AO to NBO transformation
                   NBOs sorted by occupancy

 Filename set to /home/aloke/aloke/prakash/Gau-42559

 Job title:  Energy Optimisation and Frequency calculation


 NATURAL POPULATIONS:  Natural atomic orbital occupancies

  NAO Atom No lang   Type(AO)    Occupancy      Energy
 -------------------------------------------------------
   1    C  1  s      Cor( 1s)     1.99999     -10.20312
   2    C  1  s      Val( 2s)     0.92219      -0.12113
   3    C  1  s      Ryd( 3s)     0.00084       1.38560
   4    C  1  s      Ryd( 4s)     0.00016       2.25577
   5    C  1  s      Ryd( 5s)     0.00000      19.54509
   6    C  1  px     Val( 2p)     1.05015      -0.03191
   7    C  1  px     Ryd( 3p)     0.00400       1.01192
   8    C  1  px     Ryd( 4p)     0.00044       2.26507
   9    C  1  py     Val( 2p)     1.02500      -0.04544
  10    C  1  py     Ryd( 3p)     0.00428       1.00957
  11    C  1  py     Ryd( 4p)     0.00030       2.03153
  12    C  1  pz     Val( 2p)     1.01800      -0.10639
  13    C  1  pz     Ryd( 3p)     0.00211       0.78724
  14    C  1  pz     Ryd( 4p)     0.00013       1.60924
  15    C  1  dxy    Ryd( 3d)     0.00075       2.62720
  16    C  1  dxy    Ryd( 4d)     0.00065       3.91958
  17    C  1  dxz    Ryd( 3d)     0.00042       1.95271
  18    C  1  dxz    Ryd( 4d)     0.00029       3.43281
  19    C  1  dyz    Ryd( 3d)     0.00067       2.67987
  20    C  1  dyz    Ryd( 4d)     0.00019       3.58041
  21    C  1  dx2y2  Ryd( 3d)     0.00090       2.80354
  22    C  1  dx2y2  Ryd( 4d)     0.00048       3.97619
  23    C  1  dz2    Ryd( 3d)     0.00065       2.81127
  24    C  1  dz2    Ryd( 4d)     0.00009       3.47740
  25    C  1  f(0)   Ryd( 4f)     0.00038       3.36220
  26    C  1  f(c1)  Ryd( 4f)     0.00024       3.40051
  27    C  1  f(s1)  Ryd( 4f)     0.00035       3.31213
  28    C  1  f(c2)  Ryd( 4f)     0.00015       3.46606
  29    C  1  f(s2)  Ryd( 4f)     0.00027       3.48698
  30    C  1  f(c3)  Ryd( 4f)     0.00051       3.80577
  31    C  1  f(s3)  Ryd( 4f)     0.00017       3.74458

  32    C  2  s      Cor( 1s)     1.99999     -10.19566
  33    C  2  s      Val( 2s)     0.97565      -0.13172
  34    C  2  s      Ryd( 3s)     0.00073       2.33205
  35    C  2  s      Ryd( 4s)     0.00012       2.52261
  36    C  2  s      Ryd( 5s)     0.00000      18.20254
  37    C  2  px     Val( 2p)     1.06503      -0.03220
  38    C  2  px     Ryd( 3p)     0.00331       0.99310
  39    C  2  px     Ryd( 4p)     0.00020       2.04924
  40    C  2  py     Val( 2p)     1.12151      -0.06777
  41    C  2  py     Ryd( 3p)     0.00352       1.10792
  42    C  2  py     Ryd( 4p)     0.00020       2.03498
  43    C  2  pz     Val( 2p)     0.97734      -0.10986
  44    C  2  pz     Ryd( 3p)     0.00190       0.77224
  45    C  2  pz     Ryd( 4p)     0.00017       1.50339
  46    C  2  dxy    Ryd( 3d)     0.00135       2.19863
  47    C  2  dxy    Ryd( 4d)     0.00044       3.89562
  48    C  2  dxz    Ryd( 3d)     0.00061       1.77662
  49    C  2  dxz    Ryd( 4d)     0.00020       3.33994
  50    C  2  dyz    Ryd( 3d)     0.00110       1.88585
  51    C  2  dyz    Ryd( 4d)     0.00009       3.27370
  52    C  2  dx2y2  Ryd( 3d)     0.00135       2.16799
  53    C  2  dx2y2  Ryd( 4d)     0.00039       3.92416
  54    C  2  dz2    Ryd( 3d)     0.00093       1.87808
  55    C  2  dz2    Ryd( 4d)     0.00005       3.28543
  56    C  2  f(0)   Ryd( 4f)     0.00042       3.33865
  57    C  2  f(c1)  Ryd( 4f)     0.00026       3.41043
  58    C  2  f(s1)  Ryd( 4f)     0.00027       3.15753
  59    C  2  f(c2)  Ryd( 4f)     0.00024       3.43432
  60    C  2  f(s2)  Ryd( 4f)     0.00025       3.49588
  61    C  2  f(c3)  Ryd( 4f)     0.00049       3.79981
  62    C  2  f(s3)  Ryd( 4f)     0.00024       3.66640

  63    C  3  s      Cor( 1s)     1.99999     -10.23045
  64    C  3  s      Val( 2s)     0.92285      -0.14157
  65    C  3  s      Ryd( 3s)     0.00090       1.66033
  66    C  3  s      Ryd( 4s)     0.00012       2.05225
  67    C  3  s      Ryd( 5s)     0.00000      20.87806
  68    C  3  px     Val( 2p)     0.86780      -0.05011
  69    C  3  px     Ryd( 3p)     0.00534       1.01711
  70    C  3  px     Ryd( 4p)     0.00030       1.76400
  71    C  3  py     Val( 2p)     1.08792      -0.06885
  72    C  3  py     Ryd( 3p)     0.00434       1.11191
  73    C  3  py     Ryd( 4p)     0.00033       1.76620
  74    C  3  pz     Val( 2p)     1.08520      -0.12251
  75    C  3  pz     Ryd( 3p)     0.00243       0.85183
  76    C  3  pz     Ryd( 4p)     0.00019       1.40785
  77    C  3  dxy    Ryd( 3d)     0.00090       2.74462
  78    C  3  dxy    Ryd( 4d)     0.00039       3.86516
  79    C  3  dxz    Ryd( 3d)     0.00056       1.98958
  80    C  3  dxz    Ryd( 4d)     0.00017       3.33667
  81    C  3  dyz    Ryd( 3d)     0.00074       2.42156
  82    C  3  dyz    Ryd( 4d)     0.00020       3.62637
  83    C  3  dx2y2  Ryd( 4d)     0.00054       3.03113
  84    C  3  dx2y2  Ryd( 3d)     0.00073       3.97477
  85    C  3  dz2    Ryd( 3d)     0.00059       2.56146
  86    C  3  dz2    Ryd( 4d)     0.00019       3.39268
  87    C  3  f(0)   Ryd( 4f)     0.00031       3.41656
  88    C  3  f(c1)  Ryd( 4f)     0.00020       3.45683
  89    C  3  f(s1)  Ryd( 4f)     0.00040       3.33102
  90    C  3  f(c2)  Ryd( 4f)     0.00023       3.52977
  91    C  3  f(s2)  Ryd( 4f)     0.00030       3.52319
  92    C  3  f(c3)  Ryd( 4f)     0.00045       3.84156
  93    C  3  f(s3)  Ryd( 4f)     0.00018       3.77783

  94    C  4  s      Cor( 1s)     1.99999     -10.20000
  95    C  4  s      Val( 2s)     0.97821      -0.14037
  96    C  4  s      Ryd( 3s)     0.00084       2.11086
  97    C  4  s      Ryd( 4s)     0.00005       3.78040
  98    C  4  s      Ryd( 5s)     0.00000      16.27147
  99    C  4  px     Val( 2p)     1.10218      -0.04515
 100    C  4  px     Ryd( 3p)     0.00392       1.06878
 101    C  4  px     Ryd( 4p)     0.00017       1.99575
 102    C  4  py     Val( 2p)     1.08420      -0.06855
 103    C  4  py     Ryd( 3p)     0.00331       0.97284
 104    C  4  py     Ryd( 4p)     0.00018       1.89730
 105    C  4  pz     Val( 2p)     0.99027      -0.11177
 106    C  4  pz     Ryd( 3p)     0.00189       0.76491
 107    C  4  pz     Ryd( 4p)     0.00017       1.45962
 108    C  4  dxy    Ryd( 3d)     0.00072       2.17090
 109    C  4  dxy    Ryd( 4d)     0.00054       3.78620
 110    C  4  dxz    Ryd( 3d)     0.00045       1.87388
 111    C  4  dxz    Ryd( 4d)     0.00022       3.17704
 112    C  4  dyz    Ryd( 3d)     0.00116       1.97754
 113    C  4  dyz    Ryd( 4d)     0.00008       3.24209
 114    C  4  dx2y2  Ryd( 3d)     0.00152       2.25296
 115    C  4  dx2y2  Ryd( 4d)     0.00020       3.74647
 116    C  4  dz2    Ryd( 3d)     0.00082       1.93114
 117    C  4  dz2    Ryd( 4d)     0.00004       3.14424
 118    C  4  f(0)   Ryd( 4f)     0.00038       3.36328
 119    C  4  f(c1)  Ryd( 4f)     0.00023       3.35400
 120    C  4  f(s1)  Ryd( 4f)     0.00030       3.19634
 121    C  4  f(c2)  Ryd( 4f)     0.00017       3.41383
 122    C  4  f(s2)  Ryd( 4f)     0.00035       3.54668
 123    C  4  f(c3)  Ryd( 4f)     0.00042       3.72662
 124    C  4  f(s3)  Ryd( 4f)     0.00021       3.66809

 125    C  5  s      Cor( 1s)     1.99999     -10.19480
 126    C  5  s      Val( 2s)     0.97306      -0.14174
 127    C  5  s      Ryd( 3s)     0.00099       1.83281
 128    C  5  s      Ryd( 4s)     0.00007       2.35506
 129    C  5  s      Ryd( 5s)     0.00000      20.22083
 130    C  5  px     Val( 2p)     1.06820      -0.04146
 131    C  5  px     Ryd( 3p)     0.00274       0.95835
 132    C  5  px     Ryd( 4p)     0.00021       2.02227
 133    C  5  py     Val( 2p)     1.11787      -0.07386
 134    C  5  py     Ryd( 3p)     0.00292       1.04436
 135    C  5  py     Ryd( 4p)     0.00033       1.84621
 136    C  5  pz     Val( 2p)     1.07042      -0.11730
 137    C  5  pz     Ryd( 3p)     0.00220       0.75924
 138    C  5  pz     Ryd( 4p)     0.00018       1.43721
 139    C  5  dxy    Ryd( 3d)     0.00118       2.16699
 140    C  5  dxy    Ryd( 4d)     0.00039       3.73523
 141    C  5  dxz    Ryd( 3d)     0.00046       1.87128
 142    C  5  dxz    Ryd( 4d)     0.00019       3.23257
 143    C  5  dyz    Ryd( 3d)     0.00089       2.09003
 144    C  5  dyz    Ryd( 4d)     0.00010       3.17024
 145    C  5  dx2y2  Ryd( 3d)     0.00098       2.27525
 146    C  5  dx2y2  Ryd( 4d)     0.00028       3.81531
 147    C  5  dz2    Ryd( 3d)     0.00082       1.97821
 148    C  5  dz2    Ryd( 4d)     0.00004       3.12742
 149    C  5  f(0)   Ryd( 4f)     0.00039       3.34742
 150    C  5  f(c1)  Ryd( 4f)     0.00025       3.40148
 151    C  5  f(s1)  Ryd( 4f)     0.00031       3.14350
 152    C  5  f(c2)  Ryd( 4f)     0.00024       3.44330
 153    C  5  f(s2)  Ryd( 4f)     0.00025       3.48926
 154    C  5  f(c3)  Ryd( 4f)     0.00044       3.76940
 155    C  5  f(s3)  Ryd( 4f)     0.00022       3.62670

 156    C  6  s      Cor( 1s)     1.99999     -10.23533
 157    C  6  s      Val( 2s)     0.87971      -0.11351
 158    C  6  s      Ryd( 3s)     0.00107       1.34352
 159    C  6  s      Ryd( 4s)     0.00016       1.76520
 160    C  6  s      Ryd( 5s)     0.00000      20.77234
 161    C  6  px     Val( 2p)     0.89331      -0.01336
 162    C  6  px     Ryd( 3p)     0.00509       1.10764
 163    C  6  px     Ryd( 4p)     0.00039       1.86213
 164    C  6  py     Val( 2p)     1.03617      -0.05408
 165    C  6  py     Ryd( 3p)     0.00246       0.90674
 166    C  6  py     Ryd( 4p)     0.00040       1.94008
 167    C  6  pz     Val( 2p)     0.99107      -0.11090
 168    C  6  pz     Ryd( 3p)     0.00281       0.78606
 169    C  6  pz     Ryd( 4p)     0.00016       1.60343
 170    C  6  dxy    Ryd( 3d)     0.00115       3.19727
 171    C  6  dxy    Ryd( 4d)     0.00051       3.44746
 172    C  6  dxz    Ryd( 3d)     0.00054       2.74002
 173    C  6  dxz    Ryd( 4d)     0.00035       2.88687
 174    C  6  dyz    Ryd( 3d)     0.00060       3.07069
 175    C  6  dyz    Ryd( 4d)     0.00020       2.98540
 176    C  6  dx2y2  Ryd( 4d)     0.00056       3.95204
 177    C  6  dx2y2  Ryd( 3d)     0.00087       3.51786
 178    C  6  dz2    Ryd( 3d)     0.00045       3.41836
 179    C  6  dz2    Ryd( 4d)     0.00014       2.80177
 180    C  6  f(0)   Ryd( 4f)     0.00029       3.42507
 181    C  6  f(c1)  Ryd( 4f)     0.00017       3.41418
 182    C  6  f(s1)  Ryd( 4f)     0.00030       3.33073
 183    C  6  f(c2)  Ryd( 4f)     0.00020       3.54393
 184    C  6  f(s2)  Ryd( 4f)     0.00031       3.53097
 185    C  6  f(c3)  Ryd( 4f)     0.00038       3.77089
 186    C  6  f(s3)  Ryd( 4f)     0.00017       3.76647

 187    H  7  s      Val( 1s)     0.74575       0.06265
 188    H  7  s      Ryd( 2s)     0.00076       1.18981
 189    H  7  s      Ryd( 3s)     0.00009       1.51265
 190    H  7  px     Ryd( 2p)     0.00022       2.67270
 191    H  7  py     Ryd( 2p)     0.00056       2.74839
 192    H  7  pz     Ryd( 2p)     0.00017       2.29201

 193    H  8  s      Val( 1s)     0.75397       0.04933
 194    H  8  s      Ryd( 2s)     0.00054       1.12469
 195    H  8  s      Ryd( 3s)     0.00009       1.47739
 196    H  8  px     Ryd( 2p)     0.00039       2.67425
 197    H  8  py     Ryd( 2p)     0.00033       2.64110
 198    H  8  pz     Ryd( 2p)     0.00019       2.29518

 199    H  9  s      Val( 1s)     0.78246       0.03326
 200    H  9  s      Ryd( 2s)     0.00093       0.71369
 201    H  9  s      Ryd( 3s)     0.00009       1.91925
 202    H  9  px     Ryd( 2p)     0.00014       2.61481
 203    H  9  py     Ryd( 2p)     0.00056       2.71728
 204    H  9  pz     Ryd( 2p)     0.00025       2.29175

 205    N 10  s      Cor( 1s)     1.99999     -14.34652
 206    N 10  s      Val( 2s)     1.24478      -0.42914
 207    N 10  s      Ryd( 3s)     0.00094       1.52084
 208    N 10  s      Ryd( 4s)     0.00007       5.36803
 209    N 10  s      Ryd( 5s)     0.00000      25.32692
 210    N 10  px     Val( 2p)     1.28314      -0.19629
 211    N 10  px     Ryd( 3p)     0.00284       0.70938
 212    N 10  px     Ryd( 4p)     0.00017       3.00760
 213    N 10  py     Val( 2p)     1.65061      -0.23827
 214    N 10  py     Ryd( 3p)     0.00751       0.84562
 215    N 10  py     Ryd( 4p)     0.00019       2.63020
 216    N 10  pz     Val( 2p)     1.22705      -0.19934
 217    N 10  pz     Ryd( 3p)     0.00251       0.81863
 218    N 10  pz     Ryd( 4p)     0.00010       2.85745
 219    N 10  dxy    Ryd( 3d)     0.00125       2.31722
 220    N 10  dxy    Ryd( 4d)     0.00018       4.97838
 221    N 10  dxz    Ryd( 3d)     0.00035       2.13193
 222    N 10  dxz    Ryd( 4d)     0.00022       4.98464
 223    N 10  dyz    Ryd( 3d)     0.00204       2.00018
 224    N 10  dyz    Ryd( 4d)     0.00011       5.00328
 225    N 10  dx2y2  Ryd( 3d)     0.00228       2.43385
 226    N 10  dx2y2  Ryd( 4d)     0.00007       5.31897
 227    N 10  dz2    Ryd( 3d)     0.00147       2.05594
 228    N 10  dz2    Ryd( 4d)     0.00014       5.14365
 229    N 10  f(0)   Ryd( 4f)     0.00004       4.75400
 230    N 10  f(c1)  Ryd( 4f)     0.00016       4.86861
 231    N 10  f(s1)  Ryd( 4f)     0.00012       4.66563
 232    N 10  f(c2)  Ryd( 4f)     0.00007       4.75812
 233    N 10  f(s2)  Ryd( 4f)     0.00009       4.57074
 234    N 10  f(c3)  Ryd( 4f)     0.00020       4.61266
 235    N 10  f(s3)  Ryd( 4f)     0.00012       4.73097

 236    C 11  s      Cor( 1s)     1.99999     -10.21480
 237    C 11  s      Val( 2s)     1.08524      -0.23315
 238    C 11  s      Ryd( 3s)     0.00083       1.44045
 239    C 11  s      Ryd( 4s)     0.00003       1.72903
 240    C 11  s      Ryd( 5s)     0.00000      21.53096
 241    C 11  px     Val( 2p)     1.16597      -0.12577
 242    C 11  px     Ryd( 3p)     0.00172       0.75841
 243    C 11  px     Ryd( 4p)     0.00020       1.60260
 244    C 11  py     Val( 2p)     1.10195      -0.11098
 245    C 11  py     Ryd( 3p)     0.00113       0.63233
 246    C 11  py     Ryd( 4p)     0.00027       1.47743
 247    C 11  pz     Val( 2p)     1.03519      -0.10774
 248    C 11  pz     Ryd( 3p)     0.00164       0.63010
 249    C 11  pz     Ryd( 4p)     0.00010       1.54801
 250    C 11  dxy    Ryd( 3d)     0.00047       2.10292
 251    C 11  dxy    Ryd( 4d)     0.00005       2.59675
 252    C 11  dxz    Ryd( 3d)     0.00077       2.22472
 253    C 11  dxz    Ryd( 4d)     0.00005       2.66748
 254    C 11  dyz    Ryd( 3d)     0.00084       2.56660
 255    C 11  dyz    Ryd( 4d)     0.00008       2.72568
 256    C 11  dx2y2  Ryd( 3d)     0.00170       1.99256
 257    C 11  dx2y2  Ryd( 4d)     0.00010       3.05655
 258    C 11  dz2    Ryd( 3d)     0.00112       2.09885
 259    C 11  dz2    Ryd( 4d)     0.00008       2.94102
 260    C 11  f(0)   Ryd( 4f)     0.00005       3.41928
 261    C 11  f(c1)  Ryd( 4f)     0.00024       3.65446
 262    C 11  f(s1)  Ryd( 4f)     0.00023       3.61266
 263    C 11  f(c2)  Ryd( 4f)     0.00005       3.35728
 264    C 11  f(s2)  Ryd( 4f)     0.00004       3.41688
 265    C 11  f(c3)  Ryd( 4f)     0.00016       3.48358
 266    C 11  f(s3)  Ryd( 4f)     0.00014       3.46660

 267    H 12  s      Val( 1s)     0.82914      -0.00509
 268    H 12  s      Ryd( 2s)     0.00289       0.52874
 269    H 12  s      Ryd( 3s)     0.00004       2.08196
 270    H 12  px     Ryd( 2p)     0.00009       2.12527
 271    H 12  py     Ryd( 2p)     0.00082       2.75379
 272    H 12  pz     Ryd( 2p)     0.00010       2.14078

 273    H 13  s      Val( 1s)     0.79762       0.00911
 274    H 13  s      Ryd( 2s)     0.00063       0.72369
 275    H 13  s      Ryd( 3s)     0.00004       1.76960
 276    H 13  px     Ryd( 2p)     0.00085       2.74961
 277    H 13  py     Ryd( 2p)     0.00009       2.13128
 278    H 13  pz     Ryd( 2p)     0.00009       2.18421

 279    H 14  s      Val( 1s)     0.79221       0.01174
 280    H 14  s      Ryd( 2s)     0.00048       0.51610
 281    H 14  s      Ryd( 3s)     0.00005       2.02281
 282    H 14  px     Ryd( 2p)     0.00017       2.24255
 283    H 14  py     Ryd( 2p)     0.00012       2.18558
 284    H 14  pz     Ryd( 2p)     0.00060       2.75083

 285    C 15  s      Cor( 1s)     1.99999     -10.21643
 286    C 15  s      Val( 2s)     1.08844      -0.23520
 287    C 15  s      Ryd( 3s)     0.00089       1.33750
 288    C 15  s      Ryd( 4s)     0.00004       1.77036
 289    C 15  s      Ryd( 5s)     0.00000      21.70263
 290    C 15  px     Val( 2p)     1.15132      -0.12421
 291    C 15  px     Ryd( 3p)     0.00138       0.67894
 292    C 15  px     Ryd( 4p)     0.00013       1.51470
 293    C 15  py     Val( 2p)     1.18116      -0.12631
 294    C 15  py     Ryd( 3p)     0.00134       0.63897
 295    C 15  py     Ryd( 4p)     0.00028       1.49916
 296    C 15  pz     Val( 2p)     0.95969      -0.09634
 297    C 15  pz     Ryd( 3p)     0.00128       0.61380
 298    C 15  pz     Ryd( 4p)     0.00017       1.53893
 299    C 15  dxy    Ryd( 3d)     0.00057       1.95798
 300    C 15  dxy    Ryd( 4d)     0.00003       2.60785
 301    C 15  dxz    Ryd( 3d)     0.00069       2.40777
 302    C 15  dxz    Ryd( 4d)     0.00006       2.74795
 303    C 15  dyz    Ryd( 3d)     0.00125       2.08735
 304    C 15  dyz    Ryd( 4d)     0.00006       2.71804
 305    C 15  dx2y2  Ryd( 3d)     0.00162       1.98633
 306    C 15  dx2y2  Ryd( 4d)     0.00007       3.00028
 307    C 15  dz2    Ryd( 3d)     0.00080       2.45288
 308    C 15  dz2    Ryd( 4d)     0.00010       2.97297
 309    C 15  f(0)   Ryd( 4f)     0.00008       3.49875
 310    C 15  f(c1)  Ryd( 4f)     0.00028       3.64779
 311    C 15  f(s1)  Ryd( 4f)     0.00016       3.57053
 312    C 15  f(c2)  Ryd( 4f)     0.00007       3.36705
 313    C 15  f(s2)  Ryd( 4f)     0.00003       3.50602
 314    C 15  f(c3)  Ryd( 4f)     0.00013       3.37158
 315    C 15  f(s3)  Ryd( 4f)     0.00017       3.43319

 316    H 16  s      Val( 1s)     0.82326      -0.00125
 317    H 16  s      Ryd( 2s)     0.00293       0.51497
 318    H 16  s      Ryd( 3s)     0.00003       2.03357
 319    H 16  px     Ryd( 2p)     0.00008       2.10597
 320    H 16  py     Ryd( 2p)     0.00076       2.70018
 321    H 16  pz     Ryd( 2p)     0.00014       2.22634

 322    H 17  s      Val( 1s)     0.80346       0.00639
 323    H 17  s      Ryd( 2s)     0.00071       0.62621
 324    H 17  s      Ryd( 3s)     0.00003       1.83590
 325    H 17  px     Ryd( 2p)     0.00087       2.73934
 326    H 17  py     Ryd( 2p)     0.00009       2.11737
 327    H 17  pz     Ryd( 2p)     0.00009       2.19438

 328    H 18  s      Val( 1s)     0.79500       0.01385
 329    H 18  s      Ryd( 2s)     0.00044       0.69511
 330    H 18  s      Ryd( 3s)     0.00004       1.91967
 331    H 18  px     Ryd( 2p)     0.00019       2.27277
 332    H 18  py     Ryd( 2p)     0.00025       2.31490
 333    H 18  pz     Ryd( 2p)     0.00048       2.67221

 334    C 19  s      Cor( 1s)     1.99999     -10.19356
 335    C 19  s      Val( 2s)     1.04288      -0.20355
 336    C 19  s      Ryd( 3s)     0.00098       1.66966
 337    C 19  s      Ryd( 4s)     0.00004       2.08798
 338    C 19  s      Ryd( 5s)     0.00000      20.97610
 339    C 19  px     Val( 2p)     1.13964      -0.09760
 340    C 19  px     Ryd( 3p)     0.00268       0.93345
 341    C 19  px     Ryd( 4p)     0.00022       1.72284
 342    C 19  py     Val( 2p)     1.09967      -0.09521
 343    C 19  py     Ryd( 3p)     0.00246       0.81139
 344    C 19  py     Ryd( 4p)     0.00016       1.69027
 345    C 19  pz     Val( 2p)     1.11114      -0.10103
 346    C 19  pz     Ryd( 3p)     0.00226       0.69005
 347    C 19  pz     Ryd( 4p)     0.00030       1.65528
 348    C 19  dxy    Ryd( 3d)     0.00151       2.33101
 349    C 19  dxy    Ryd( 4d)     0.00012       3.76568
 350    C 19  dxz    Ryd( 3d)     0.00118       1.91594
 351    C 19  dxz    Ryd( 4d)     0.00015       3.55529
 352    C 19  dyz    Ryd( 3d)     0.00108       2.05210
 353    C 19  dyz    Ryd( 4d)     0.00020       3.52732
 354    C 19  dx2y2  Ryd( 3d)     0.00027       1.91546
 355    C 19  dx2y2  Ryd( 4d)     0.00025       3.09943
 356    C 19  dz2    Ryd( 3d)     0.00043       1.86126
 357    C 19  dz2    Ryd( 4d)     0.00019       3.13011
 358    C 19  f(0)   Ryd( 4f)     0.00003       3.51216
 359    C 19  f(c1)  Ryd( 4f)     0.00011       3.47721
 360    C 19  f(s1)  Ryd( 4f)     0.00006       3.48123
 361    C 19  f(c2)  Ryd( 4f)     0.00006       3.53650
 362    C 19  f(s2)  Ryd( 4f)     0.00055       3.84880
 363    C 19  f(c3)  Ryd( 4f)     0.00013       3.48868
 364    C 19  f(s3)  Ryd( 4f)     0.00004       3.58359

 365    H 20  s      Val( 1s)     0.77230       0.03286
 366    H 20  s      Ryd( 2s)     0.00089       0.79722
 367    H 20  s      Ryd( 3s)     0.00004       1.86337
 368    H 20  px     Ryd( 2p)     0.00030       2.45971
 369    H 20  py     Ryd( 2p)     0.00042       2.62832
 370    H 20  pz     Ryd( 2p)     0.00027       2.54620

 371    H 21  s      Val( 1s)     0.78633       0.02325
 372    H 21  s      Ryd( 2s)     0.00083       0.73017
 373    H 21  s      Ryd( 3s)     0.00003       2.00465
 374    H 21  px     Ryd( 2p)     0.00050       2.59003
 375    H 21  py     Ryd( 2p)     0.00018       2.41004
 376    H 21  pz     Ryd( 2p)     0.00043       2.68033

 377    C 22  s      Cor( 1s)     1.99999     -10.19720
 378    C 22  s      Val( 2s)     1.08987      -0.23938
 379    C 22  s      Ryd( 3s)     0.00061       1.15763
 380    C 22  s      Ryd( 4s)     0.00003       2.90149
 381    C 22  s      Ryd( 5s)     0.00001      20.05350
 382    C 22  px     Val( 2p)     1.14692      -0.11940
 383    C 22  px     Ryd( 3p)     0.00170       0.64027
 384    C 22  px     Ryd( 4p)     0.00017       1.65120
 385    C 22  py     Val( 2p)     1.14242      -0.11863
 386    C 22  py     Ryd( 3p)     0.00132       0.72524
 387    C 22  py     Ryd( 4p)     0.00012       1.64637
 388    C 22  pz     Val( 2p)     1.10465      -0.10599
 389    C 22  pz     Ryd( 3p)     0.00100       0.69151
 390    C 22  pz     Ryd( 4p)     0.00019       1.64854
 391    C 22  dxy    Ryd( 3d)     0.00167       1.85139
 392    C 22  dxy    Ryd( 4d)     0.00007       3.64196
 393    C 22  dxz    Ryd( 3d)     0.00146       1.92012
 394    C 22  dxz    Ryd( 4d)     0.00009       3.53232
 395    C 22  dyz    Ryd( 3d)     0.00169       2.05856
 396    C 22  dyz    Ryd( 4d)     0.00009       3.65136
 397    C 22  dx2y2  Ryd( 3d)     0.00022       1.65662
 398    C 22  dx2y2  Ryd( 4d)     0.00015       2.99662
 399    C 22  dz2    Ryd( 3d)     0.00050       1.67577
 400    C 22  dz2    Ryd( 4d)     0.00015       3.08398
 401    C 22  f(0)   Ryd( 4f)     0.00003       3.47993
 402    C 22  f(c1)  Ryd( 4f)     0.00012       3.40380
 403    C 22  f(s1)  Ryd( 4f)     0.00013       3.42764
 404    C 22  f(c2)  Ryd( 4f)     0.00003       3.40324
 405    C 22  f(s2)  Ryd( 4f)     0.00083       3.82904
 406    C 22  f(c3)  Ryd( 4f)     0.00004       3.37735
 407    C 22  f(s3)  Ryd( 4f)     0.00006       3.44185

 408    H 23  s      Val( 1s)     0.76790      -0.00100
 409    H 23  s      Ryd( 2s)     0.00045       0.75186
 410    H 23  s      Ryd( 3s)     0.00002       1.83285
 411    H 23  px     Ryd( 2p)     0.00052       2.64210
 412    H 23  py     Ryd( 2p)     0.00032       2.45698
 413    H 23  pz     Ryd( 2p)     0.00016       2.36390

 414    H 24  s      Val( 1s)     0.76171       0.01365
 415    H 24  s      Ryd( 2s)     0.00079       0.76531
 416    H 24  s      Ryd( 3s)     0.00005       2.00248
 417    H 24  px     Ryd( 2p)     0.00025       2.45598
 418    H 24  py     Ryd( 2p)     0.00043       2.50635
 419    H 24  pz     Ryd( 2p)     0.00027       2.55687

 420    C 25  s      Cor( 1s)     1.99999     -10.27145
 421    C 25  s      Val( 2s)     0.95676      -0.18960
 422    C 25  s      Ryd( 3s)     0.00962       1.11342
 423    C 25  s      Ryd( 4s)     0.00010       1.02816
 424    C 25  s      Ryd( 5s)     0.00001      22.07394
 425    C 25  px     Val( 2p)     0.81414      -0.00720
 426    C 25  px     Ryd( 3p)     0.01176       1.09453
 427    C 25  px     Ryd( 4p)     0.00029       1.13968
 428    C 25  py     Val( 2p)     0.80893      -0.10767
 429    C 25  py     Ryd( 3p)     0.00179       0.98932
 430    C 25  py     Ryd( 4p)     0.00018       0.92681
 431    C 25  pz     Val( 2p)     0.95124      -0.09300
 432    C 25  pz     Ryd( 3p)     0.00137       1.11052
 433    C 25  pz     Ryd( 4p)     0.00022       1.03144
 434    C 25  dxy    Ryd( 3d)     0.00142       2.92588
 435    C 25  dxy    Ryd( 4d)     0.00018       2.24920
 436    C 25  dxz    Ryd( 3d)     0.00180       2.93007
 437    C 25  dxz    Ryd( 4d)     0.00026       2.30743
 438    C 25  dyz    Ryd( 3d)     0.00063       2.79651
 439    C 25  dyz    Ryd( 4d)     0.00006       2.14631
 440    C 25  dx2y2  Ryd( 3d)     0.00049       2.87928
 441    C 25  dx2y2  Ryd( 4d)     0.00034       2.27528
 442    C 25  dz2    Ryd( 3d)     0.00055       2.66816
 443    C 25  dz2    Ryd( 4d)     0.00019       2.11469
 444    C 25  f(0)   Ryd( 4f)     0.00012       3.22006
 445    C 25  f(c1)  Ryd( 4f)     0.00018       3.53857
 446    C 25  f(s1)  Ryd( 4f)     0.00009       3.28459
 447    C 25  f(c2)  Ryd( 4f)     0.00009       3.40005
 448    C 25  f(s2)  Ryd( 4f)     0.00031       3.39284
 449    C 25  f(c3)  Ryd( 4f)     0.00016       3.47857
 450    C 25  f(s3)  Ryd( 4f)     0.00015       3.48125

 451    H 26  s      Val( 1s)     0.89523      -0.04146
 452    H 26  s      Ryd( 2s)     0.00315       0.45110
 453    H 26  s      Ryd( 3s)     0.00009       2.10862
 454    H 26  px     Ryd( 2p)     0.00021       2.35046
 455    H 26  py     Ryd( 2p)     0.00024       2.24926
 456    H 26  pz     Ryd( 2p)     0.00064       2.60103

 457    O 27  s      Cor( 1s)     1.99999     -19.13629
 458    O 27  s      Val( 2s)     1.70212      -0.69285
 459    O 27  s      Ryd( 3s)     0.00066       1.38868
 460    O 27  s      Ryd( 4s)     0.00002       4.99143
 461    O 27  s      Ryd( 5s)     0.00000      41.31724
 462    O 27  px     Val( 2p)     1.55510      -0.28980
 463    O 27  px     Ryd( 3p)     0.00048       0.65081
 464    O 27  px     Ryd( 4p)     0.00016       3.59792
 465    O 27  py     Val( 2p)     1.53234      -0.27227
 466    O 27  py     Ryd( 3p)     0.00148       0.67615
 467    O 27  py     Ryd( 4p)     0.00002       3.00830
 468    O 27  pz     Val( 2p)     1.69779      -0.27701
 469    O 27  pz     Ryd( 3p)     0.00281       0.66761
 470    O 27  pz     Ryd( 4p)     0.00002       3.07060
 471    O 27  dxy    Ryd( 3d)     0.00464       1.88250
 472    O 27  dxy    Ryd( 4d)     0.00002       6.57490
 473    O 27  dxz    Ryd( 3d)     0.00470       1.94730
 474    O 27  dxz    Ryd( 4d)     0.00004       6.61776
 475    O 27  dyz    Ryd( 3d)     0.00049       1.63424
 476    O 27  dyz    Ryd( 4d)     0.00000       6.38190
 477    O 27  dx2y2  Ryd( 3d)     0.00667       2.00482
 478    O 27  dx2y2  Ryd( 4d)     0.00000       6.61411
 479    O 27  dz2    Ryd( 3d)     0.00235       1.75058
 480    O 27  dz2    Ryd( 4d)     0.00001       6.41529
 481    O 27  f(0)   Ryd( 4f)     0.00006       5.47355
 482    O 27  f(c1)  Ryd( 4f)     0.00009       5.73649
 483    O 27  f(s1)  Ryd( 4f)     0.00002       5.24433
 484    O 27  f(c2)  Ryd( 4f)     0.00009       5.67940
 485    O 27  f(s2)  Ryd( 4f)     0.00003       5.53275
 486    O 27  f(c3)  Ryd( 4f)     0.00010       5.84455
 487    O 27  f(s3)  Ryd( 4f)     0.00012       5.86527

 488    N 28  s      Cor( 1s)     1.99999     -14.54483
 489    N 28  s      Val( 2s)     1.12162      -0.46329
 490    N 28  s      Ryd( 3s)     0.00446       2.20054
 491    N 28  s      Ryd( 4s)     0.00021       1.89871
 492    N 28  s      Ryd( 5s)     0.00000      27.96190
 493    N 28  px     Val( 2p)     1.17247      -0.26293
 494    N 28  px     Ryd( 3p)     0.00703       1.19831
 495    N 28  px     Ryd( 4p)     0.00008       2.07769
 496    N 28  py     Val( 2p)     1.04958      -0.24751
 497    N 28  py     Ryd( 3p)     0.00931       1.28747
 498    N 28  py     Ryd( 4p)     0.00015       2.41546
 499    N 28  pz     Val( 2p)     1.11284      -0.28537
 500    N 28  pz     Ryd( 3p)     0.00449       1.07482
 501    N 28  pz     Ryd( 4p)     0.00018       1.99921
 502    N 28  dxy    Ryd( 3d)     0.00225       2.70035
 503    N 28  dxy    Ryd( 4d)     0.00018       5.12532
 504    N 28  dxz    Ryd( 3d)     0.00163       2.39639
 505    N 28  dxz    Ryd( 4d)     0.00006       4.57730
 506    N 28  dyz    Ryd( 3d)     0.00221       3.31061
 507    N 28  dyz    Ryd( 4d)     0.00009       4.85009
 508    N 28  dx2y2  Ryd( 3d)     0.00402       2.48147
 509    N 28  dx2y2  Ryd( 4d)     0.00007       4.79647
 510    N 28  dz2    Ryd( 3d)     0.00349       2.42098
 511    N 28  dz2    Ryd( 4d)     0.00008       4.36989
 512    N 28  f(0)   Ryd( 4f)     0.00019       4.55826
 513    N 28  f(c1)  Ryd( 4f)     0.00012       4.41299
 514    N 28  f(s1)  Ryd( 4f)     0.00035       4.55561
 515    N 28  f(c2)  Ryd( 4f)     0.00026       4.67260
 516    N 28  f(s2)  Ryd( 4f)     0.00041       4.85307
 517    N 28  f(c3)  Ryd( 4f)     0.00033       4.86976
 518    N 28  f(s3)  Ryd( 4f)     0.00015       4.80028

[...]
  237.  0.00010     2.40903  401.   RY ( 2) H 20
  238.  0.00010     2.30473  236.   RY (12) C  6
  239.  0.00010     2.34609  437.   RY ( 2) H 23
  240.  0.00010     1.61708  533.   RY ( 5) O 29
  241.  0.00010     1.71941  131.   RY (11) C  2
  242.  0.00010     2.10761  324.   RY ( 2) H 13
  243.  0.00010     1.60179  559.   RY ( 5) O 30
  244.  0.00010     2.27904  106.   RY (12) C  1
  245.  0.00010     1.44558  258.   RY ( 3) H  8
  246.  0.00010     2.09048  329.   RY ( 2) H 14
  247.  0.00009     1.43186  297.   RY ( 6) C 11
  248.  0.00009     3.10590  451.   RY ( 6) C 25
  249.  0.00009     1.74393  253.   RY ( 3) H  7
  250.  0.00009     1.90672  263.   RY ( 3) H  9
  251.  0.00009     2.33253  438.   RY ( 3) H 23
  252.  0.00009     2.10893  365.   RY ( 2) H 17
  253.  0.00009     2.72825  274.   RY ( 9) N 10
  254.  0.00008     2.92794  207.   RY ( 9) C  5
  255.  0.00008     1.25546  182.   RY (10) C  4
  256.  0.00008     3.43153  275.   RY (10) N 10
  257.  0.00008     2.12421  474.   RY ( 3) H 26
  258.  0.00008     2.42392  480.   RY ( 4) O 27
  259.  0.00008     2.33339  407.   RY ( 3) H 21
  260.  0.00008     2.17403  319.   RY ( 2) H 12
  261.  0.00008     2.82727  159.   RY (13) C  3
  262.  0.00008     2.41806  254.   RY ( 4) H  7
  263.  0.00008     1.52106  298.   RY ( 7) C 11
  264.  0.00008     2.35276  402.   RY ( 3) H 20
  265.  0.00007     2.21970  360.   RY ( 2) H 16
  266.  0.00007     2.11357  320.   RY ( 3) H 12
  267.  0.00007     2.19346  330.   RY ( 3) H 14
  268.  0.00007     2.11831  383.   RY (10) C 19
  269.  0.00007     2.72703  534.   RY ( 6) O 29
  270.  0.00007     2.42199  452.   RY ( 7) C 25
  271.  0.00007     2.62855  560.   RY ( 6) O 30
  272.  0.00007     3.02205  107.   RY (13) C  1
  273.  0.00007     2.55291  264.   RY ( 4) H  9
  274.  0.00007     2.44952  384.   RY (11) C 19
  275.  0.00007     2.09746  366.   RY ( 3) H 17
  276.  0.00007     2.29492  443.   RY ( 3) H 24
  277.  0.00007     4.86085  511.   RY ( 9) N 28
  278.  0.00006     2.50936  259.   RY ( 4) H  8
  279.  0.00006     2.09642  325.   RY ( 3) H 13
  280.  0.00006     2.12711  371.   RY ( 3) H 18
  281.  0.00006     2.73631  132.   RY (12) C  2
  282.  0.00006     3.11774  237.   RY (13) C  6
  283.  0.00006     2.55615  208.   RY (10) C  5
  284.  0.00006     1.74007  339.   RY ( 7) C 15
  285.  0.00005     2.08993  361.   RY ( 3) H 16
  286.  0.00005     2.24816  403.   RY ( 4) H 20
  287.  0.00005     2.00324  418.   RY ( 9) C 22
  288.  0.00005     1.71552  299.   RY ( 8) C 11
  289.  0.00005     2.23655  160.   RY (14) C  3
  290.  0.00005     2.82711  108.   RY (14) C  1
  291.  0.00005     2.81008  276.   RY (11) N 10
  292.  0.00005     2.30025  372.   RY ( 4) H 18
  293.  0.00005     2.37300  444.   RY ( 4) H 24
  294.  0.00005     2.01729  475.   RY ( 4) H 26
  295.  0.00004     2.53587  408.   RY ( 4) H 21
  296.  0.00004     1.57732  481.   RY ( 5) O 27
  297.  0.00004     1.76435  340.   RY ( 8) C 15
  298.  0.00004     2.11223  183.   RY (11) C  4
  299.  0.00004     3.33214  238.   RY (14) C  6
  300.  0.00004     2.20763  321.   RY ( 4) H 12
  301.  0.00004     1.43942  453.   RY ( 8) C 25
  302.  0.00004     1.05963  482.   RY ( 6) O 27
  303.  0.00003     2.50028  184.   RY (12) C  4
  304.  0.00003     2.24914  362.   RY ( 4) H 16
  305.  0.00003     2.72988  109.   RY (15) C  1
  306.  0.00003     2.74886  133.   RY (13) C  2
  307.  0.00003     1.91109  209.   RY (11) C  5
  308.  0.00003     2.16213  326.   RY ( 4) H 13
  309.  0.00003     3.29924  239.   RY (15) C  6
  310.  0.00003     2.20101  331.   RY ( 4) H 14
  311.  0.00003     2.41126  419.   RY (10) C 22
  312.  0.00003     3.06466  512.   RY (10) N 28
  313.  0.00003     4.00788  134.   RY (14) C  2
  314.  0.00003     2.19583  367.   RY ( 4) H 17
  315.  0.00003     3.08723  385.   RY (12) C 19
  316.  0.00003     2.33307  439.   RY ( 4) H 23
  317.  0.00003     2.43131  561.   RY ( 7) O 30
  318.  0.00003     3.06165  277.   RY (12) N 10
  319.  0.00003     1.84787  483.   RY ( 7) O 27
  320.  0.00003     2.43265  535.   RY ( 7) O 29
  321.  0.00002     3.00525  240.   RY (16) C  6
  322.  0.00002     2.42726  135.   RY (15) C  2
  323.  0.00002     2.06720  300.   RY ( 9) C 11
  324.  0.00002     1.97035  341.   RY ( 9) C 15
  325.  0.00002     2.83654  420.   RY (11) C 22
  326.  0.00002     2.37162  421.   RY (12) C 22
  327.  0.00002     2.82941  386.   RY (13) C 19
  328.  0.00002     2.70985  185.   RY (13) C  4
  329.  0.00002     2.14518  210.   RY (12) C  5
  330.  0.00002     1.71239  301.   RY (10) C 11
  331.  0.00002     2.41426  342.   RY (10) C 15
  332.  0.00002     2.39467  409.   RY ( 5) H 21
  333.  0.00002     2.62846  513.   RY (11) N 28
  334.  0.00002     3.76024  110.   RY (16) C  1
  335.  0.00002     2.50741  186.   RY (14) C  4
  336.  0.00002     2.93746  255.   RY ( 5) H  7
  337.  0.00002     3.53333  278.   RY (13) N 10
  338.  0.00002     2.22503  387.   RY (14) C 19
  339.  0.00002     3.35502  111.   RY (17) C  1
  340.  0.00002     2.19056  454.   RY ( 9) C 25
  341.  0.00001     2.64107  112.   RY (18) C  1
  342.  0.00001     2.73051  211.   RY (13) C  5
  343.  0.00001     3.45732  241.   RY (17) C  6
  344.  0.00001     3.47602  279.   RY (14) N 10
  345.  0.00001     4.43947  514.   RY (12) N 28
  346.  0.00001     2.44488  136.   RY (16) C  2
  347.  0.00001     3.92427  161.   RY (15) C  3
  348.  0.00001     2.37163  302.   RY (11) C 11
  349.  0.00001     3.22260  137.   RY (17) C  2
  350.  0.00001     4.37786  162.   RY (16) C  3
  351.  0.00001     2.91674  260.   RY ( 5) H  8
  352.  0.00001     3.28682  113.   RY (19) C  1
  353.  0.00001     3.46199  212.   RY (14) C  5
  354.  0.00001     2.92651  265.   RY ( 5) H  9
  355.  0.00001     3.07652  388.   RY (15) C 19
  356.  0.00001     2.32666  422.   RY (13) C 22
  357.  0.00001     2.54178  445.   RY ( 5) H 24
  358.  0.00001     2.68778  536.   RY ( 8) O 29
  359.  0.00001     1.76324  455.   RY (10) C 25
  360.  0.00001     2.61244  537.   RY ( 9) O 29
  361.  0.00001     3.04199  562.   RY ( 8) O 30
  362.  0.00001     4.17642  280.   RY (15) N 10
  363.  0.00001     3.02281  187.   RY (15) C  4
  364.  0.00001     2.12177  389.   RY (16) C 19
  365.  0.00001     1.93673  456.   RY (11) C 25
  366.  0.00001     3.85548  515.   RY (13) N 28
  367.  0.00001     2.39844  563.   RY ( 9) O 30
  368.  0.00001     2.90759  213.   RY (15) C  5
  369.  0.00001     3.11411  242.   RY (18) C  6
  370.  0.00001     3.37513  114.   RY (20) C  1
  371.  0.00001     5.98043  138.   RY (18) C  2
  372.  0.00001     2.86691  163.   RY (17) C  3
  373.  0.00001     3.84742  243.   RY (19) C  6
  374.  0.00000     4.29629  115.   RY (21) C  1
  375.  0.00000     3.40335  139.   RY (19) C  2
  376.  0.00000     3.14057  140.   RY (20) C  2
  377.  0.00000     3.10816  164.   RY (18) C  3
  378.  0.00000     3.42343  116.   RY (22) C  1
  379.  0.00000     3.23360  117.   RY (23) C  1
  380.  0.00000     5.41164  141.   RY (21) C  2
  381.  0.00000    17.37821  118.   RY (24) C  1
  382.  0.00000     4.28277  119.   RY (25) C  1
  383.  0.00000     3.76158  120.   RY (26) C  1
  384.  0.00000     3.57429  142.   RY (22) C  2
  385.  0.00000     3.99970  143.   RY (23) C  2
  386.  0.00000     3.59536  144.   RY (24) C  2
  387.  0.00000    10.36838  145.   RY (25) C  2
  388.  0.00000     4.08914  146.   RY (26) C  2
  389.  0.00000    15.71981  165.   RY (19) C  3
  390.  0.00000     3.75202  166.   RY (20) C  3
  391.  0.00000     5.94410  167.   RY (21) C  3
  392.  0.00000     2.39742  168.   RY (22) C  3
  393.  0.00000     3.55390  169.   RY (23) C  3
  394.  0.00000     3.21519  188.   RY (16) C  4
  395.  0.00000     3.37594  189.   RY (17) C  4
  396.  0.00000     3.35837  170.   RY (24) C  3
  397.  0.00000     3.96840  171.   RY (25) C  3
  398.  0.00000     4.72807  172.   RY (26) C  3
  399.  0.00000     5.38389  190.   RY (18) C  4
  400.  0.00000     9.78538  191.   RY (19) C  4
  401.  0.00000     2.71257  192.   RY (20) C  4
  402.  0.00000     5.36909  193.   RY (21) C  4
  403.  0.00000     2.07513  214.   RY (16) C  5
  404.  0.00000     3.30946  215.   RY (17) C  5
  405.  0.00000     3.51501  216.   RY (18) C  5
  406.  0.00000     5.89803  217.   RY (19) C  5
  407.  0.00000     2.98569  244.   RY (20) C  6
  408.  0.00000     4.44227  281.   RY (16) N 10
  409.  0.00000     2.25573  303.   RY (12) C 11
  410.  0.00000     2.46105  327.   RY ( 5) H 13
  411.  0.00001     1.75819  343.   RY (11) C 15
  412.  0.00001     2.49101  363.   RY ( 5) H 16
  413.  0.00001     2.52405  390.   RY (17) C 19
  414.  0.00001     2.49564  404.   RY ( 5) H 20
  415.  0.00001     2.27936  423.   RY (14) C 22
  416.  0.00000     3.60781  245.   RY (21) C  6
  417.  0.00000     3.12374  194.   RY (22) C  4
  418.  0.00000     3.35920  195.   RY (23) C  4
  419.  0.00000     3.23359  196.   RY (24) C  4
  420.  0.00000     3.13440  197.   RY (25) C  4
  421.  0.00000     6.05463  198.   RY (26) C  4
  422.  0.00000     4.55753  218.   RY (20) C  5
  423.  0.00000     3.28363  219.   RY (21) C  5
  424.  0.00000     3.21694  246.   RY (22) C  6
  425.  0.00000     4.09534  282.   RY (17) N 10
  426.  0.00000     3.96470  283.   RY (18) N 10
  427.  0.00000     2.47802  304.   RY (13) C 11
  428.  0.00000     2.59893  322.   RY ( 5) H 12
  429.  0.00000     2.65843  332.   RY ( 5) H 14
  430.  0.00000     2.26746  344.   RY (12) C 15
  431.  0.00000     2.47632  368.   RY ( 5) H 17
  432.  0.00001     2.29543  440.   RY ( 5) H 23
  433.  0.00001     2.90048  476.   RY ( 5) H 26
  434.  0.00001     3.04247  516.   RY (14) N 28
  435.  0.00001     3.49196  517.   RY (15) N 28
  436.  0.00000     3.36984  484.   RY ( 8) O 27
  437.  0.00000     2.99327  345.   RY (13) C 15
  438.  0.00000     2.48776  373.   RY ( 5) H 18
  439.  0.00000    11.37414  220.   RY (22) C  5
  440.  0.00000     3.17466  221.   RY (23) C  5
  441.  0.00000     3.49770  222.   RY (24) C  5
  442.  0.00000     3.41368  223.   RY (25) C  5
  443.  0.00000     6.65016  224.   RY (26) C  5
  444.  0.00000     5.49480  247.   RY (23) C  6
  445.  0.00000    14.43074  248.   RY (24) C  6
  446.  0.00000     4.95753  249.   RY (25) C  6
  447.  0.00000     5.61172  250.   RY (26) C  6
  448.  0.00000     4.87744  284.   RY (19) N 10
  449.  0.00000    20.00837  285.   RY (20) N 10
  450.  0.00000     9.28704  286.   RY (21) N 10
  451.  0.00000     5.68456  287.   RY (22) N 10
  452.  0.00000     4.82818  288.   RY (23) N 10
  453.  0.00000     4.49710  289.   RY (24) N 10
  454.  0.00000     4.52830  290.   RY (25) N 10
  455.  0.00000     4.65104  291.   RY (26) N 10
  456.  0.00000    16.11333  305.   RY (14) C 11
  457.  0.00000     3.82747  306.   RY (15) C 11
  458.  0.00000     3.47770  307.   RY (16) C 11
  459.  0.00000     2.22591  308.   RY (17) C 11
  460.  0.00000     2.13730  309.   RY (18) C 11
  461.  0.00000     2.57758  346.   RY (14) C 15
  462.  0.00000     3.04314  391.   RY (18) C 19
  463.  0.00000     3.32233  392.   RY (19) C 19
  464.  0.00000     3.18275  393.   RY (20) C 19
  465.  0.00000     3.57523  310.   RY (19) C 11
  466.  0.00000     3.42535  311.   RY (20) C 11
  467.  0.00000     3.03886  312.   RY (21) C 11
  468.  0.00000     3.19851  313.   RY (22) C 11
  469.  0.00000     4.83564  314.   RY (23) C 11
  470.  0.00000     5.23801  315.   RY (24) C 11
  471.  0.00000     3.61799  316.   RY (25) C 11
  472.  0.00000     3.50886  317.   RY (26) C 11
  473.  0.00000     3.67546  347.   RY (15) C 15
  474.  0.00000     2.57674  348.   RY (16) C 15
  475.  0.00000     3.88759  349.   RY (17) C 15
  476.  0.00000    18.10098  350.   RY (18) C 15
  477.  0.00000     2.66998  351.   RY (19) C 15
  478.  0.00000     3.41651  352.   RY (20) C 15
  479.  0.00000     3.34793  353.   RY (21) C 15
  480.  0.00000     2.77107  354.   RY (22) C 15
  481.  0.00000     2.53132  355.   RY (23) C 15
  482.  0.00000     5.10753  356.   RY (24) C 15
  483.  0.00000     3.24672  357.   RY (25) C 15
  484.  0.00000     3.63349  358.   RY (26) C 15
  485.  0.00000     3.43639  394.   RY (21) C 19
  486.  0.00000     3.79025  395.   RY (22) C 19
  487.  0.00000     3.30569  396.   RY (23) C 19
  488.  0.00000     3.60896  397.   RY (24) C 19
  489.  0.00000     3.68490  398.   RY (25) C 19
  490.  0.00000     3.46282  424.   RY (15) C 22
  491.  0.00000     3.02201  425.   RY (16) C 22
  492.  0.00000     2.07219  426.   RY (17) C 22
  493.  0.00000     2.70722  457.   RY (12) C 25
  494.  0.00000     2.03284  458.   RY (13) C 25
  495.  0.00000    20.39808  399.   RY (26) C 19
  496.  0.00000     7.25666  427.   RY (18) C 22
  497.  0.00000     6.91723  428.   RY (19) C 22
  498.  0.00000     3.54713  429.   RY (20) C 22
  499.  0.00000     3.36681  430.   RY (21) C 22
  500.  0.00000     5.64696  431.   RY (22) C 22
  501.  0.00000     3.79661  432.   RY (23) C 22
  502.  0.00000     3.33465  433.   RY (24) C 22
  503.  0.00000     2.73307  459.   RY (14) C 25
  504.  0.00000     2.31037  460.   RY (15) C 25
  505.  0.00000     6.42757  434.   RY (25) C 22
  506.  0.00000     4.72898  435.   RY (26) C 22
  507.  0.00000     3.24865  461.   RY (16) C 25
  508.  0.00000     2.46199  462.   RY (17) C 25
  509.  0.00000     2.16880  463.   RY (18) C 25
  510.  0.00000     3.16888  464.   RY (19) C 25
  511.  0.00000     3.15041  465.   RY (20) C 25
  512.  0.00000     9.79067  466.   RY (21) C 25
  513.  0.00000     6.88954  467.   RY (22) C 25
  514.  0.00000     2.68174  468.   RY (23) C 25
  515.  0.00000     5.15832  469.   RY (24) C 25
  516.  0.00000     4.35192  470.   RY (25) C 25
  517.  0.00000     6.26701  471.   RY (26) C 25
  518.  0.00000     2.96350  485.   RY ( 9) O 27
  519.  0.00000     2.32572  486.   RY (10) O 27
  520.  0.00000     2.94776  487.   RY (11) O 27
  521.  0.00000     5.09012  538.   RY (10) O 29
  522.  0.00000     4.82155  564.   RY (10) O 30
  523.  0.00000     2.54987  518.   RY (16) N 28
  524.  0.00000     7.09794  488.   RY (12) O 27
  525.  0.00000    12.85102  489.   RY (13) O 27
  526.  0.00000     5.45953  490.   RY (14) O 27
  527.  0.00000     6.06078  491.   RY (15) O 27
  528.  0.00000     8.56063  492.   RY (16) O 27
  529.  0.00000     9.48649  493.   RY (17) O 27
  530.  0.00000     4.60877  494.   RY (18) O 27
  531.  0.00000    13.13198  495.   RY (19) O 27
  532.  0.00000     5.82622  496.   RY (20) O 27
  533.  0.00000     6.03479  497.   RY (21) O 27
  534.  0.00000     5.84129  498.   RY (22) O 27
  535.  0.00000    10.71791  499.   RY (23) O 27
  536.  0.00000    10.86937  500.   RY (24) O 27
  537.  0.00000     6.21661  501.   RY (25) O 27
  538.  0.00000     6.05007  502.   RY (26) O 27
  539.  0.00000    18.68067  519.   RY (17) N 28
  540.  0.00000     5.16309  520.   RY (18) N 28
  541.  0.00000     2.73121  539.   RY (11) O 29
  542.  0.00000     3.08196  540.   RY (12) O 29
  543.  0.00000     2.69937  565.   RY (11) O 30
  544.  0.00000     3.38731  566.   RY (12) O 30
  545.  0.00000     3.42889  521.   RY (19) N 28
  546.  0.00000     4.54880  522.   RY (20) N 28
  547.  0.00000     4.95123  523.   RY (21) N 28
  548.  0.00000     5.38591  524.   RY (22) N 28
  549.  0.00000     4.55729  525.   RY (23) N 28
  550.  0.00000     9.31916  526.   RY (24) N 28
  551.  0.00000     7.47721  527.   RY (25) N 28
  552.  0.00000     4.46240  528.   RY (26) N 28
  553.  0.00000     6.82858  541.   RY (13) O 29
  554.  0.00000     2.80180  542.   RY (14) O 29
  555.  0.00000     5.85185  543.   RY (15) O 29
  556.  0.00000    11.03576  544.   RY (16) O 29
  557.  0.00000    18.50268  545.   RY (17) O 29
  558.  0.00000     6.37409  546.   RY (18) O 29
  559.  0.00000     9.54596  547.   RY (19) O 29
  560.  0.00000     7.72677  548.   RY (20) O 29
  561.  0.00000     6.68997  549.   RY (21) O 29
  562.  0.00000     5.73584  550.   RY (22) O 29
  563.  0.00000     7.62748  551.   RY (23) O 29
  564.  0.00000     5.49844  552.   RY (24) O 29
  565.  0.00000     5.77024  553.   RY (25) O 29
  566.  0.00000    11.99244  554.   RY (26) O 29
  567.  0.00000     6.36399  567.   RY (13) O 30
  568.  0.00000     5.77435  568.   RY (14) O 30
  569.  0.00000    11.99854  569.   RY (15) O 30
  570.  0.00000    12.23878  570.   RY (16) O 30
  571.  0.00000     7.90273  571.   RY (17) O 30
  572.  0.00000     3.62478  572.   RY (18) O 30
  573.  0.00000    16.13190  573.   RY (19) O 30
  574.  0.00000     5.60099  574.   RY (20) O 30
  575.  0.00000     5.84790  575.   RY (21) O 30
  576.  0.00000     6.41758  576.   RY (22) O 30
  577.  0.00000     5.86614  577.   RY (23) O 30
  578.  0.00000    10.27031  578.   RY (24) O 30
  579.  0.00000     7.83959  579.   RY (25) O 30
  580.  0.00000     6.11939  580.   RY (26) O 30

 Maximum scratch memory used by NBO was 2960212 words
 Maximum scratch memory used by G09NBO was 2193562 words

 Read Unf file /home/aloke/aloke/prakash/Gau-42559.EUF:
 Label Gaussian matrix elements                                         IVers= 1 NLab= 2 Version=AM64L-G09RevD.01
 Title Energy Optimisation and Frequency calculation                   
 NAtoms=    30 NBasis=   580 NBsUse=   580 ICharg=     0 Multip=     1 NE=   118 Len12L=8 Len4L=8
 Label GAUSSIAN SCALARS                                                 NI= 1 NR= 1 NTot=       1 LenBuf=    2000 N=    1000       1       1       1       1
 Label ALPHA ORBITAL ENERGIES                                           NI= 0 NR= 1 NTot=     580 LenBuf=    4000 N=     580       0       0       0       0
 Label ALPHA MO COEFFICIENTS                                            NI= 0 NR= 1 NTot=  336400 LenBuf=    4000 N=     580     580       0       0       0
 Store file  524 Len=  336400.
 Label NPA CHARGES                                                      NI= 0 NR= 1 NTot=      30 LenBuf=    4000 N=      30       0       0       0       0
 Recovered energy= -762.989249778     dipole=      0.000000000000      0.000000000000      0.000000000000
 1\1\GINC-CN008\SP\RB3LYP\def2TZVP\C11H14N2O3\ALOKE\14-Jul-2021\0\\# b
 3lyp/def2tzvp empiricaldispersion=gd3 pop=nbo6read pop=saveNBOs int=(g
 rid=ultrafine) scf=(tight,maxcycle=300)\\Energy Optimisation and Frequ
 ency calculation\\0,1\C,0,-0.394643,0.262066,0.57012\C,0,0.9831,0.4300
 3,0.597834\C,0,1.823307,-0.538127,0.065147\C,0,1.319272,-1.686265,-0.5
 23844\C,0,-0.052231,-1.872036,-0.540393\C,0,-0.923725,-0.926244,0.0147
 9\H,0,1.411593,1.340278,0.988976\H,0,1.993399,-2.419279,-0.94072\H,0,-
 0.448942,-2.77782,-0.97579\N,0,-2.326421,-1.120008,-0.003611\C,0,-2.86
 7876,-1.938698,-1.076725\H,0,-2.699165,-3.017108,-0.935334\H,0,-3.9466
 22,-1.779627,-1.126084\H,0,-2.433573,-1.641075,-2.030466\C,0,-2.927893
 ,-1.458483,1.285688\H,0,-2.793614,-2.524161,1.52396\H,0,-3.997995,-1.2
 43309,1.262843\H,0,-2.476081,-0.88274,2.088806\C,0,-1.283206,1.396683,
 1.031318\H,0,-0.677467,2.116329,1.582289\H,0,-2.054755,1.045667,1.7143
 12\C,0,-1.967761,2.117222,-0.136137\H,0,-2.768887,2.774708,0.22654\H,0
 ,-2.462236,1.403529,-0.802205\C,0,-1.050988,2.985755,-0.956375\H,0,-1.
 520771,3.433262,-1.85889\O,0,0.098364,3.221562,-0.687292\N,0,3.277727,
 -0.331576,0.109429\O,0,3.986774,-1.152293,-0.457914\O,0,3.698842,0.643
 358,0.714271\\Version=AM64L-G09RevD.01\State=1-A\HF=-762.9892498\RMSD=
 6.339e-09\Dipole=-3.3176958,-0.7171206,-0.0296819\Quadrupole=-7.474116
 6,2.9923446,4.481772,-2.3236657,0.1378638,1.0991999\PG=C01 [X(C11H14N2
 O3)]\\@


 WE TEND TO MEET ANY NEW SITUATION BY REORGANIZING. IT CAN BE A
 WONDERFUL METHOD FOR CREATING THE ILLUSION OF PROGRESS WHILE PRODUCING
 CONFUSION, INEFFICIENCY, AND DEMORALIZATION.
     -- PETRONIUS ARBITER, 210 B.C.
 Job cpu time:       0 days  1 hours 11 minutes 25.7 seconds.
 File lengths (MBytes):  RWF=    131 Int=      0 D2E=      0 Chk=     13 Scr=      1
 Normal termination of Gaussian 09 at Wed Jul 14 10:08:13 2021.
