 Entering Gaussian System, Link 0=g09
 Initial command:
 /home/apps/iiser/g09/g09/l1.exe "/home/aloke/aloke/prakash/Gau-43909.inp" -scrdir="/home/aloke/aloke/prakash/"
 Entering Link 1 = /home/apps/iiser/g09/g09/l1.exe PID=     43910.
  
 Copyright (c) 1988,1990,1992,1993,1995,1998,2003,2009,2013,
            Gaussian, Inc.  All Rights Reserved.
  
 This is part of the Gaussian(R) 09 program.  It is based on
 the Gaussian(R) 03 system (copyright 2003, Gaussian, Inc.),
 the Gaussian(R) 98 system (copyright 1998, Gaussian, Inc.),
 the Gaussian(R) 94 system (copyright 1995, Gaussian, Inc.),
 the Gaussian 92(TM) system (copyright 1992, Gaussian, Inc.),
 the Gaussian 90(TM) system (copyright 1990, Gaussian, Inc.),
 the Gaussian 88(TM) system (copyright 1988, Gaussian, Inc.),
 the Gaussian 86(TM) system (copyright 1986, Carnegie Mellon
 University), and the Gaussian 82(TM) system (copyright 1983,
 Carnegie Mellon University). Gaussian is a federally registered
 trademark of Gaussian, Inc.
  
 This software contains proprietary and confidential information,
 including trade secrets, belonging to Gaussian, Inc.
  
 This software is provided under written license and may be
 used, copied, transmitted, or stored only in accord with that
 written license.
  
 The following legend is applicable only to US Government
 contracts under FAR:
  
                    RESTRICTED RIGHTS LEGEND
  
 Use, reproduction and disclosure by the US Government is
 subject to restrictions as set forth in subparagraphs (a)
 and (c) of the Commercial Computer Software - Restricted
 Rights clause in FAR 52.227-19.
  
 Gaussian, Inc.
 340 Quinnipiac St., Bldg. 40, Wallingford CT 06492
  
  
 ---------------------------------------------------------------
 Warning -- This program may not be used in any manner that
 competes with the business of Gaussian, Inc. or will provide
 assistance to any competitor of Gaussian, Inc.  The licensee
 of this program is prohibited from giving any competitor of
 Gaussian, Inc. access to this program.  By using this program,
 the user acknowledges that Gaussian, Inc. is engaged in the
 business of creating and licensing software in the field of
 computational chemistry and represents and warrants to the
 licensee that it is not a competitor of Gaussian, Inc. and that
 it will not use this program in any manner prohibited above.
 ---------------------------------------------------------------
  

 Cite this work as:
 Gaussian 09, Revision D.01,
 M. J. Frisch, G. W. Trucks, H. B. Schlegel, G. E. Scuseria, 
 M. A. Robb, J. R. Cheeseman, G. Scalmani, V. Barone, B. Mennucci, 
 G. A. Petersson, H. Nakatsuji, M. Caricato, X. Li, H. P. Hratchian, 
 A. F. Izmaylov, J. Bloino, G. Zheng, J. L. Sonnenberg, M. Hada, 
 M. Ehara, K. Toyota, R. Fukuda, J. Hasegawa, M. Ishida, T. Nakajima, 
 Y. Honda, O. Kitao, H. Nakai, T. Vreven, J. A. Montgomery, Jr., 
 J. E. Peralta, F. Ogliaro, M. Bearpark, J. J. Heyd, E. Brothers, 
 K. N. Kudin, V. N. Staroverov, T. Keith, R. Kobayashi, J. Normand, 
 K. Raghavachari, A. Rendell, J. C. Burant, S. S. Iyengar, J. Tomasi, 
 M. Cossi, N. Rega, J. M. Millam, M. Klene, J. E. Knox, J. B. Cross, 
 V. Bakken, C. Adamo, J. Jaramillo, R. Gomperts, R. E. Stratmann, 
 O. Yazyev, A. J. Austin, R. Cammi, C. Pomelli, J. W. Ochterski, 
 R. L. Martin, K. Morokuma, V. G. Zakrzewski, G. A. Voth, 
 P. Salvador, J. J. Dannenberg, S. Dapprich, A. D. Daniels, 
 O. Farkas, J. B. Foresman, J. V. Ortiz, J. Cioslowski, 
 and D. J. Fox, Gaussian, Inc., Wallingford CT, 2013.
 
 ******************************************
 Gaussian 09:  AM64L-G09RevD.01 24-Apr-2013
                14-Jul-2021 
 ******************************************
 %LindaWorkers=cn160
 %chk=nitro_mod_bp_n.chk
 %mem=128GB
 %nprocshared=48
 Will use up to   48 processors via shared memory.
 SetLPE:  input flags=" -opt "Tsnet.Node.lindarsharg: ssh" "
 SetLPE:    new flags=" -opt "Tsnet.Node.lindarsharg: ssh"  -nodelist 'cn160'"
 Will use up to    1 processors via Linda.
 ----------------------------------------------------------------------
 # b3lyp/def2tzvp empiricaldispersion=gd3 pop=nbo6read pop=saveNBOs int
 =(grid=ultrafine) scf=(tight,maxcycle=300)
 ----------------------------------------------------------------------
 1/38=1,163=2/1;
 2/12=2,17=6,18=5,40=1/2;
 3/5=44,7=101,11=2,16=1,25=1,30=1,74=-5,75=-5,124=31/1,2,3;
 4//1;
 5/5=2,7=300,32=2,38=5/2;
 6/7=2,8=2,9=2,10=2,28=1,40=2,73=1,113=1,114=1,124=2103/1,12;
 99/5=1,9=1/99;
 ---------------------------------------------
 Energy Optimisation and Frequency calculation
 ---------------------------------------------
 Symbolic Z-matrix:
 Charge =  0 Multiplicity = 1
 C                     0.03134  -0.55716   0.56704 
 C                    -1.32237  -0.83947   0.44949 
 C                    -2.20352   0.11924  -0.03412 
 C                    -1.76168   1.3722   -0.42757 
 C                    -0.41558   1.66922  -0.29747 
 C                     0.48781   0.73282   0.2175 
 H                    -1.70433  -1.81835   0.70171 
 H                    -2.4654    2.09603  -0.81016 
 H                    -0.06479   2.64963  -0.58622 
 N                     1.86212   1.02719   0.35836 
 C                     2.44682   1.95906  -0.5934 
 H                     2.19211   3.00796  -0.38601 
 H                     3.53203   1.85907  -0.55307 
 H                     2.12968   1.70179  -1.60205 
 C                     2.32015   1.26347   1.72516 
 H                     1.8425    0.57488   2.41794 
 H                     3.40105   1.11972   1.78059 
 H                     2.0891    2.28611   2.05607 
 C                     0.98679  -1.66879   0.93247 
 H                     1.65658  -1.38361   1.74598 
 H                     0.40536  -2.51407   1.30166 
 C                     1.83386  -2.14128  -0.26822 
 H                     2.25589  -3.12381  -0.02223 
 H                     1.22469  -2.25823  -1.16538 
 C                     3.01905  -1.26414  -0.58982 
 H                     3.65902  -1.02127   0.28553 
 O                     3.33119  -0.91374  -1.69978 
 N                    -3.6307   -0.21202  -0.15022 
 O                    -4.37679   0.6371   -0.6167 
 O                    -3.99309  -1.3175    0.22802 
 
                          Input orientation:                          
 ---------------------------------------------------------------------
 Center     Atomic      Atomic             Coordinates (Angstroms)
 Number     Number       Type             X           Y           Z
 ---------------------------------------------------------------------
      1          6           0        0.031337   -0.557157    0.567037
      2          6           0       -1.322368   -0.839469    0.449494
      3          6           0       -2.203521    0.119239   -0.034116
      4          6           0       -1.761678    1.372198   -0.427565
      5          6           0       -0.415583    1.669224   -0.297465
      6          6           0        0.487805    0.732823    0.217495
      7          1           0       -1.704325   -1.818345    0.701713
      8          1           0       -2.465401    2.096028   -0.810160
      9          1           0       -0.064786    2.649628   -0.586216
     10          7           0        1.862122    1.027194    0.358362
     11          6           0        2.446824    1.959059   -0.593402
     12          1           0        2.192109    3.007961   -0.386009
     13          1           0        3.532029    1.859071   -0.553072
     14          1           0        2.129676    1.701787   -1.602054
     15          6           0        2.320151    1.263469    1.725156
     16          1           0        1.842504    0.574883    2.417941
     17          1           0        3.401050    1.119722    1.780588
     18          1           0        2.089105    2.286109    2.056066
     19          6           0        0.986793   -1.668791    0.932470
     20          1           0        1.656581   -1.383613    1.745981
     21          1           0        0.405358   -2.514065    1.301660
     22          6           0        1.833864   -2.141285   -0.268224
     23          1           0        2.255887   -3.123813   -0.022233
     24          1           0        1.224689   -2.258229   -1.165382
     25          6           0        3.019052   -1.264144   -0.589817
     26          1           0        3.659022   -1.021273    0.285528
     27          8           0        3.331192   -0.913739   -1.699782
     28          7           0       -3.630696   -0.212020   -0.150221
     29          8           0       -4.376790    0.637101   -0.616703
     30          8           0       -3.993094   -1.317495    0.228022
 ---------------------------------------------------------------------
                    Distance matrix (angstroms):
                    1          2          3          4          5
     1  C    0.000000
     2  C    1.387816   0.000000
     3  C    2.411117   1.389039   0.000000
     4  C    2.815412   2.419441   1.385617   0.000000
     5  C    2.429789   2.770153   2.380867   1.384602   0.000000
     6  C    1.412300   2.408869   2.771828   2.425918   1.399336
     7  H    2.149711   1.080603   2.131871   3.384985   3.849981
     8  H    3.894838   3.392697   2.139748   1.079599   2.155637
     9  H    3.409208   3.850715   3.358850   2.129892   1.080568
    10  N    2.430121   3.692386   4.184241   3.724062   2.455657
    11  C    3.675941   4.808971   5.032241   4.252458   2.892224
    12  H    4.276365   5.277531   5.271632   4.279004   2.932595
    13  H    4.398596   5.643795   6.016051   5.317531   3.960431
    14  H    3.769723   4.752204   4.872318   4.078074   2.860307
    15  C    3.145566   4.395180   4.986773   4.615989   3.426350
    16  H    2.826249   3.986426   4.752948   4.660766   3.697292
    17  H    3.954693   5.284025   5.975394   5.620805   4.380290
    18  H    3.812582   4.897801   5.243169   4.672492   3.491864
    19  C    1.510684   2.500653   3.782782   4.318727   3.823839
    20  H    2.171257   3.294102   4.508625   4.899315   4.217742
    21  H    2.123453   2.552547   3.940157   4.773814   4.553136
    22  C    2.540910   3.488788   4.633061   5.029699   4.425025
    23  H    3.447258   4.271377   5.513968   6.043115   5.494152
    24  H    2.705367   3.332897   4.322585   4.758441   4.343807
    25  C    3.280942   4.484244   5.431190   5.461868   4.526239
    26  H    3.668072   4.987403   5.980999   5.968349   4.917424
    27  O    4.019286   5.126453   5.871502   5.725502   4.761986
    28  N    3.747541   2.466116   1.469708   2.465744   3.727963
    29  O    4.717953   3.556196   2.308828   2.723041   4.105892
    30  O    4.109634   2.722193   2.309868   3.555764   4.689905
                    6          7          8          9         10
     6  C    0.000000
     7  H    3.398288   0.000000
     8  H    3.411133   4.264659   0.000000
     9  H    2.150686   4.930480   2.473778   0.000000
    10  N    1.412531   4.575426   4.608178   2.690259   0.000000
    11  C    2.449278   5.760047   4.918912   2.604827   1.454683
    12  H    2.906049   6.297505   4.764864   2.293918   2.141592
    13  H    3.336092   6.520527   6.007613   3.682819   2.076372
    14  H    2.635411   5.691945   4.679450   2.597305   2.090429
    15  C    2.431485   5.171211   5.479278   3.598861   1.460733
    16  H    2.588845   4.610095   5.593976   4.119136   2.108752
    17  H    3.328655   5.988411   6.486940   4.467034   2.097519
    18  H    2.890883   5.750733   5.384692   3.428272   2.125697
    19  C    2.554981   2.705131   5.397061   4.696910   2.892082
    20  H    2.860351   3.546150   5.969296   4.966818   2.789216
    21  H    3.424105   2.301027   5.827006   5.518046   3.943664
    22  C    3.210653   3.682913   6.060709   5.163220   3.229964
    23  H    4.249379   4.232213   7.082240   6.247897   4.186975
    24  H    3.376646   3.501238   5.718610   5.107371   3.677244
    25  C    3.323679   4.928030   6.435723   4.982738   2.736377
    26  H    3.624652   5.438201   6.958926   5.301151   2.725871
    27  O    3.804204   5.651718   6.591708   5.046809   3.187686
    28  N    4.241461   2.648958   2.668430   4.592911   5.653791
    29  O    4.936531   3.861283   2.412323   4.758631   6.326685
    30  O    4.927715   2.390334   3.881212   5.642043   6.308574
                   11         12         13         14         15
    11  C    0.000000
    12  H    1.099130   0.000000
    13  H    1.090548   1.772920   0.000000
    14  H    1.088187   1.785708   1.758322   0.000000
    15  C    2.423964   2.741654   2.648342   3.361358   0.000000
    16  H    3.368877   3.728837   3.651103   4.184823   1.087312
    17  H    2.692743   3.117872   2.451481   3.660254   1.091823
    18  H    2.693437   2.548610   3.011975   3.704716   1.099398
    19  C    4.197770   5.006314   4.596833   4.369301   3.317280
    20  H    4.155798   4.911018   4.395219   4.577428   2.729066
    21  H    5.269505   6.044293   5.686864   5.401688   4.256236
    22  C    4.158639   5.163037   4.355198   4.078702   3.975222
    23  H    5.118425   6.142886   5.171021   5.079191   4.722895
    24  H    4.427899   5.410738   4.759296   4.085512   4.685894
    25  C    3.273606   4.356174   3.165275   3.257662   3.498055
    26  H    3.335314   4.340221   3.002625   3.649236   3.014158
    27  O    3.202991   4.289900   3.007284   2.879960   4.182420
    28  N    6.468867   6.657998   7.467017   6.241183   6.411450
    29  O    6.950527   6.987462   8.002917   6.666226   7.122195
    30  O    7.272076   7.572539   8.205374   7.067783   6.982825
                   16         17         18         19         20
    16  H    0.000000
    17  H    1.769784   0.000000
    18  H    1.766369   1.776949   0.000000
    19  C    2.823639   3.784672   4.256618   0.000000
    20  H    2.078895   3.051402   3.708111   1.091670   0.000000
    21  H    3.585118   4.733704   5.142548   1.090347   1.743818
    22  C    3.820095   4.157868   5.006924   1.543517   2.159286
    23  H    4.450358   4.750700   5.797793   2.153868   2.552263
    24  H    4.609601   4.982554   5.637016   2.192034   3.070426
    25  C    3.716570   3.383424   4.524356   2.571220   2.706760
    26  H    3.224071   2.624045   4.066721   2.824645   2.504792
    27  O    4.624698   4.031479   5.088045   3.604866   3.859843
    28  N    6.096769   7.412625   6.620006   4.961412   5.737901
    29  O    6.920445   8.153203   7.188235   6.040290   6.787277
    30  O    6.513912   7.938756   7.302113   5.041719   5.850419
                   21         22         23         24         25
    21  H    0.000000
    22  C    2.155024   0.000000
    23  H    2.355619   1.097259   0.000000
    24  H    2.612097   1.090717   1.766181   0.000000
    25  C    3.459969   1.509129   2.088765   2.130544   0.000000
    26  H    3.721194   2.211848   2.546405   3.092115   1.111205
    27  O    4.486669   2.407949   2.975715   2.555502   1.205088
    28  N    4.867967   5.796327   6.568621   5.365844   6.746804
    29  O    6.039777   6.812715   7.647893   6.329341   7.636356
    30  O    4.683039   5.905788   6.509622   5.481954   7.059879
                   26         27         28         29         30
    26  H    0.000000
    27  O    2.015066   0.000000
    28  N    7.347432   7.166689   0.000000
    29  O    8.254605   7.936697   1.222812   0.000000
    30  O    7.658063   7.584498   1.223305   2.163615   0.000000
 Stoichiometry    C11H14N2O3
 Framework group  C1[X(C11H14N2O3)]
 Deg. of freedom    84
 Full point group                 C1      NOp   1
 Largest Abelian subgroup         C1      NOp   1
 Largest concise Abelian subgroup C1      NOp   1
                         Standard orientation:                         
 ---------------------------------------------------------------------
 Center     Atomic      Atomic             Coordinates (Angstroms)
 Number     Number       Type             X           Y           Z
 ---------------------------------------------------------------------
      1          6           0       -0.031337    0.557157    0.567037
      2          6           0        1.322368    0.839469    0.449494
      3          6           0        2.203521   -0.119239   -0.034116
      4          6           0        1.761678   -1.372198   -0.427565
      5          6           0        0.415583   -1.669224   -0.297465
      6          6           0       -0.487805   -0.732823    0.217495
      7          1           0        1.704325    1.818345    0.701713
      8          1           0        2.465401   -2.096028   -0.810160
      9          1           0        0.064786   -2.649628   -0.586216
     10          7           0       -1.862122   -1.027194    0.358362
     11          6           0       -2.446824   -1.959059   -0.593402
     12          1           0       -2.192109   -3.007961   -0.386009
     13          1           0       -3.532029   -1.859071   -0.553072
     14          1           0       -2.129676   -1.701787   -1.602054
     15          6           0       -2.320151   -1.263469    1.725156
     16          1           0       -1.842504   -0.574883    2.417941
     17          1           0       -3.401050   -1.119722    1.780588
     18          1           0       -2.089105   -2.286109    2.056066
     19          6           0       -0.986793    1.668791    0.932470
     20          1           0       -1.656581    1.383613    1.745981
     21          1           0       -0.405358    2.514065    1.301660
     22          6           0       -1.833864    2.141285   -0.268224
     23          1           0       -2.255887    3.123813   -0.022233
     24          1           0       -1.224689    2.258229   -1.165382
     25          6           0       -3.019052    1.264144   -0.589817
     26          1           0       -3.659022    1.021273    0.285528
     27          8           0       -3.331192    0.913739   -1.699782
     28          7           0        3.630696    0.212020   -0.150221
     29          8           0        4.376790   -0.637101   -0.616703
     30          8           0        3.993094    1.317495    0.228022
 ---------------------------------------------------------------------
 Rotational constants (GHZ):      0.9779408      0.3143087      0.2753304
 Standard basis: def2TZVP (5D, 7F)
 There are   660 symmetry adapted cartesian basis functions of A   symmetry.
 There are   580 symmetry adapted basis functions of A   symmetry.
   580 basis functions,   928 primitive gaussians,   660 cartesian basis functions
    59 alpha electrons       59 beta electrons
       nuclear repulsion energy      1113.7788512199 Hartrees.
 NAtoms=   30 NActive=   30 NUniq=   30 SFac= 1.00D+00 NAtFMM=   60 NAOKFM=F Big=F
 Integral buffers will be    131072 words long.
 Raffenetti 2 integral format.
 Two-electron integral symmetry is turned on.
 Nuclear repulsion after empirical dispersion term =     1113.7464219783 Hartrees.
 One-electron integrals computed using PRISM.
   1 Symmetry operations used in ECPInt.
 ECPInt:  NShTT=   27028 NPrTT=   82204 LenC2=   24759 LenP2D=   55621.
 LDataN:  DoStor=T MaxTD1= 6 Len=  172
 NBasis=   580 RedAO= T EigKep=  5.39D-06  NBF=   580
 NBsUse=   580 1.00D-06 EigRej= -1.00D+00 NBFU=   580
 ExpMin= 9.52D-02 ExpMax= 2.70D+04 ExpMxC= 9.22D+02 IAcc=3 IRadAn=         5 AccDes= 0.00D+00
 Harris functional with IExCor=  402 and IRadAn=       5 diagonalized for initial guess.
 HarFok:  IExCor=  402 AccDes= 0.00D+00 IRadAn=         5 IDoV= 1 UseB2=F ITyADJ=14
 ICtDFT=  3500011 ScaDFX=  1.000000  1.000000  1.000000  1.000000
 FoFCou: FMM=F IPFlag=           0 FMFlag=      100000 FMFlg1=           0
         NFxFlg=           0 DoJE=T BraDBF=F KetDBF=T FulRan=T
         wScrn=  0.000000 ICntrl=     500 IOpCl=  0 I1Cent=   200000004 NGrid=           0
         NMat0=    1 NMatS0=      1 NMatT0=    0 NMatD0=    1 NMtDS0=    0 NMtDT0=    0
 Petite list used in FoFCou.
 Keep R1 ints in memory in canonical form, NReq=14340362693.
 Requested convergence on RMS density matrix=1.00D-08 within 300 cycles.
 Requested convergence on MAX density matrix=1.00D-06.
 Requested convergence on             energy=1.00D-06.
 No special actions if energy rises.
 Integral accuracy reduced to 1.0D-05 until final iterations.
 Initial convergence to 1.0D-05 achieved.  Increase integral accuracy.
 SCF Done:  E(RB3LYP) =  -762.991093594     A.U. after   15 cycles
            NFock= 15  Conv=0.68D-08     -V/T= 2.0048

 **********************************************************************

            Population analysis using the SCF density.

 **********************************************************************

 Orbital symmetries:
       Occupied  (A) (A) (A) (A) (A) (A) (A) (A) (A) (A) (A) (A)
                 (A) (A) (A) (A) (A) (A) (A) (A) (A) (A) (A) (A)
                 (A) (A) (A) (A) (A) (A) (A) (A) (A) (A) (A) (A)
                 (A) (A) (A) (A) (A) (A) (A) (A) (A) (A) (A) (A)
                 (A) (A) (A) (A) (A) (A) (A) (A) (A) (A) (A)
       Virtual   (A) (A) (A) (A) (A) (A) (A) (A) (A) (A) (A) (A)
                 (A) (A) (A) (A) (A) (A) (A) (A) (A) (A) (A) (A)
                 (A) (A) (A) (A) (A) (A) (A) (A) (A) (A) (A) (A)
                 (A) (A) (A) (A) (A) (A) (A) (A) (A) (A) (A) (A)
                 (A) (A) (A) (A) (A) (A) (A) (A) (A) (A) (A) (A)
                 (A) (A) (A) (A) (A) (A) (A) (A) (A) (A) (A) (A)
                 (A) (A) (A) (A) (A) (A) (A) (A) (A) (A) (A) (A)
                 (A) (A) (A) (A) (A) (A) (A) (A) (A) (A) (A) (A)
                 (A) (A) (A) (A) (A) (A) (A) (A) (A) (A) (A) (A)
                 (A) (A) (A) (A) (A) (A) (A) (A) (A) (A) (A) (A)
                 (A) (A) (A) (A) (A) (A) (A) (A) (A) (A) (A) (A)
                 (A) (A) (A) (A) (A) (A) (A) (A) (A) (A) (A) (A)
                 (A) (A) (A) (A) (A) (A) (A) (A) (A) (A) (A) (A)
                 (A) (A) (A) (A) (A) (A) (A) (A) (A) (A) (A) (A)
                 (A) (A) (A) (A) (A) (A) (A) (A) (A) (A) (A) (A)
                 (A) (A) (A) (A) (A) (A) (A) (A) (A) (A) (A) (A)
                 (A) (A) (A) (A) (A) (A) (A) (A) (A) (A) (A) (A)
                 (A) (A) (A) (A) (A) (A) (A) (A) (A) (A) (A) (A)
                 (A) (A) (A) (A) (A) (A) (A) (A) (A) (A) (A) (A)
                 (A) (A) (A) (A) (A) (A) (A) (A) (A) (A) (A) (A)
                 (A) (A) (A) (A) (A) (A) (A) (A) (A) (A) (A) (A)
                 (A) (A) (A) (A) (A) (A) (A) (A) (A) (A) (A) (A)
                 (A) (A) (A) (A) (A) (A) (A) (A) (A) (A) (A) (A)
                 (A) (A) (A) (A) (A) (A) (A) (A) (A) (A) (A) (A)
                 (A) (A) (A) (A) (A) (A) (A) (A) (A) (A) (A) (A)
                 (A) (A) (A) (A) (A) (A) (A) (A) (A) (A) (A) (A)
                 (A) (A) (A) (A) (A) (A) (A) (A) (A) (A) (A) (A)
                 (A) (A) (A) (A) (A) (A) (A) (A) (A) (A) (A) (A)
                 (A) (A) (A) (A) (A) (A) (A) (A) (A) (A) (A) (A)
                 (A) (A) (A) (A) (A) (A) (A) (A) (A) (A) (A) (A)
                 (A) (A) (A) (A) (A) (A) (A) (A) (A) (A) (A) (A)
                 (A) (A) (A) (A) (A) (A) (A) (A) (A) (A) (A) (A)
                 (A) (A) (A) (A) (A) (A) (A) (A) (A) (A) (A) (A)
                 (A) (A) (A) (A) (A) (A) (A) (A) (A) (A) (A) (A)
                 (A) (A) (A) (A) (A) (A) (A) (A) (A) (A) (A) (A)
                 (A) (A) (A) (A) (A) (A) (A) (A) (A) (A) (A) (A)
                 (A) (A) (A) (A) (A) (A) (A) (A) (A) (A) (A) (A)
                 (A) (A) (A) (A) (A) (A) (A) (A) (A) (A) (A) (A)
                 (A) (A) (A) (A) (A) (A) (A) (A) (A) (A) (A) (A)
                 (A) (A) (A) (A) (A) (A) (A) (A) (A) (A) (A) (A)
                 (A) (A) (A) (A) (A) (A) (A) (A) (A) (A) (A) (A)
                 (A) (A) (A) (A) (A) (A) (A) (A) (A) (A) (A) (A)
                 (A) (A) (A) (A) (A) (A) (A) (A) (A) (A) (A) (A)
                 (A) (A) (A) (A) (A)
 The electronic state is 1-A.
 Alpha  occ. eigenvalues --  -19.15871 -19.15864 -19.12539 -14.55334 -14.35141
 Alpha  occ. eigenvalues --  -10.26660 -10.24116 -10.23937 -10.22016 -10.21119
 Alpha  occ. eigenvalues --  -10.20979 -10.20741 -10.20606 -10.20446 -10.20155
 Alpha  occ. eigenvalues --  -10.19547  -1.23303  -1.05877  -1.05367  -0.97040
 Alpha  occ. eigenvalues --   -0.89501  -0.83286  -0.80264  -0.77194  -0.73767
 Alpha  occ. eigenvalues --   -0.72338  -0.68777  -0.65312  -0.62891  -0.59115
 Alpha  occ. eigenvalues --   -0.58293  -0.56272  -0.54106  -0.53251  -0.52867
 Alpha  occ. eigenvalues --   -0.50456  -0.49475  -0.48907  -0.46855  -0.46642
 Alpha  occ. eigenvalues --   -0.46256  -0.45307  -0.44649  -0.43043  -0.41740
 Alpha  occ. eigenvalues --   -0.41105  -0.40134  -0.39738  -0.39466  -0.38090
 Alpha  occ. eigenvalues --   -0.37788  -0.36091  -0.31975  -0.31655  -0.30183
 Alpha  occ. eigenvalues --   -0.29938  -0.28364  -0.26267  -0.24218
 Alpha virt. eigenvalues --   -0.09612  -0.04170  -0.02894  -0.01219   0.01613
 Alpha virt. eigenvalues --    0.03402   0.04082   0.05546   0.05693   0.07109
 Alpha virt. eigenvalues --    0.07732   0.07991   0.08288   0.09489   0.10556
 Alpha virt. eigenvalues --    0.10619   0.11255   0.12208   0.12304   0.13673
 Alpha virt. eigenvalues --    0.13757   0.14539   0.15003   0.16241   0.17038
 Alpha virt. eigenvalues --    0.17701   0.18918   0.19542   0.19979   0.20759
 Alpha virt. eigenvalues --    0.21946   0.22481   0.22573   0.23295   0.24187
 Alpha virt. eigenvalues --    0.25153   0.25629   0.25999   0.26495   0.27593
 Alpha virt. eigenvalues --    0.29263   0.29626   0.30423   0.31504   0.31722
 Alpha virt. eigenvalues --    0.32177   0.32733   0.32871   0.33442   0.34001
 Alpha virt. eigenvalues --    0.35158   0.35613   0.36036   0.36408   0.37528
 Alpha virt. eigenvalues --    0.37730   0.38431   0.38698   0.39453   0.39523
 Alpha virt. eigenvalues --    0.40413   0.41026   0.41873   0.42288   0.42803
 Alpha virt. eigenvalues --    0.43507   0.43850   0.44070   0.44515   0.44578
 Alpha virt. eigenvalues --    0.45506   0.46074   0.46413   0.46629   0.46968
 Alpha virt. eigenvalues --    0.47688   0.48357   0.48810   0.49567   0.50556
 Alpha virt. eigenvalues --    0.50720   0.51954   0.53285   0.53878   0.54719
 Alpha virt. eigenvalues --    0.54909   0.55515   0.57060   0.57893   0.58583
 Alpha virt. eigenvalues --    0.59530   0.60721   0.61442   0.62548   0.62998
 Alpha virt. eigenvalues --    0.63893   0.64737   0.65223   0.66263   0.67198
 Alpha virt. eigenvalues --    0.67608   0.68422   0.69910   0.70734   0.71135
 Alpha virt. eigenvalues --    0.72742   0.74110   0.75876   0.76480   0.77399
 Alpha virt. eigenvalues --    0.78740   0.79508   0.80441   0.81737   0.82706
 Alpha virt. eigenvalues --    0.83203   0.83973   0.84705   0.85825   0.87005
 Alpha virt. eigenvalues --    0.88559   0.88873   0.89337   0.90756   0.91958
 Alpha virt. eigenvalues --    0.92833   0.93994   0.95471   0.95926   0.97371
 Alpha virt. eigenvalues --    0.97499   0.98816   1.01386   1.01395   1.03253
 Alpha virt. eigenvalues --    1.03496   1.05139   1.05853   1.07185   1.08023
 Alpha virt. eigenvalues --    1.08645   1.09086   1.10988   1.12729   1.13960
 Alpha virt. eigenvalues --    1.14727   1.15463   1.15858   1.18307   1.19780
 Alpha virt. eigenvalues --    1.20298   1.22590   1.23538   1.25255   1.25758
 Alpha virt. eigenvalues --    1.26471   1.27457   1.28185   1.29154   1.30142
 Alpha virt. eigenvalues --    1.31517   1.33200   1.33790   1.36318   1.38631
 Alpha virt. eigenvalues --    1.40272   1.41299   1.42044   1.42426   1.44836
 Alpha virt. eigenvalues --    1.46640   1.46995   1.48006   1.49082   1.49960
 Alpha virt. eigenvalues --    1.50744   1.51378   1.51635   1.52156   1.52693
 Alpha virt. eigenvalues --    1.53436   1.54207   1.55304   1.56436   1.57641
 Alpha virt. eigenvalues --    1.58051   1.58415   1.59546   1.59989   1.60785
 Alpha virt. eigenvalues --    1.61806   1.62489   1.63360   1.64726   1.65884
 Alpha virt. eigenvalues --    1.67287   1.68049   1.68200   1.69937   1.70411
 Alpha virt. eigenvalues --    1.71729   1.73636   1.74975   1.75108   1.77143
 Alpha virt. eigenvalues --    1.77443   1.78700   1.79253   1.80867   1.82308
 Alpha virt. eigenvalues --    1.85089   1.86722   1.87020   1.88963   1.89954
 Alpha virt. eigenvalues --    1.90895   1.92132   1.93734   1.94364   1.95491
 Alpha virt. eigenvalues --    1.97403   1.98353   1.99267   2.00698   2.01302
 Alpha virt. eigenvalues --    2.02883   2.04187   2.06146   2.07311   2.08145
 Alpha virt. eigenvalues --    2.08968   2.09982   2.11280   2.12685   2.12718
 Alpha virt. eigenvalues --    2.15108   2.15629   2.16608   2.17957   2.18597
 Alpha virt. eigenvalues --    2.19626   2.20267   2.23240   2.24264   2.25740
 Alpha virt. eigenvalues --    2.26170   2.26698   2.27910   2.29355   2.30122
 Alpha virt. eigenvalues --    2.31305   2.33541   2.35030   2.36674   2.37458
 Alpha virt. eigenvalues --    2.38143   2.39686   2.42020   2.42395   2.43301
 Alpha virt. eigenvalues --    2.44368   2.46325   2.47581   2.48189   2.48954
 Alpha virt. eigenvalues --    2.50687   2.52343   2.52812   2.54589   2.55061
 Alpha virt. eigenvalues --    2.55680   2.56437   2.58222   2.58519   2.59702
 Alpha virt. eigenvalues --    2.60200   2.61169   2.62852   2.63450   2.64104
 Alpha virt. eigenvalues --    2.65064   2.65597   2.66920   2.67654   2.69258
 Alpha virt. eigenvalues --    2.69682   2.70386   2.71393   2.72828   2.73102
 Alpha virt. eigenvalues --    2.73788   2.75218   2.76218   2.76989   2.79056
 Alpha virt. eigenvalues --    2.80401   2.81461   2.81876   2.82592   2.84502
 Alpha virt. eigenvalues --    2.85004   2.85502   2.86723   2.87022   2.89064
 Alpha virt. eigenvalues --    2.90658   2.92120   2.93251   2.96318   2.97321
 Alpha virt. eigenvalues --    2.97684   2.98588   2.99301   3.00776   3.01495
 Alpha virt. eigenvalues --    3.02727   3.04393   3.06203   3.06685   3.07799
 Alpha virt. eigenvalues --    3.08684   3.09449   3.10008   3.10744   3.11692
 Alpha virt. eigenvalues --    3.13419   3.14342   3.15258   3.15860   3.16568
 Alpha virt. eigenvalues --    3.17777   3.18004   3.19077   3.20622   3.20858
 Alpha virt. eigenvalues --    3.21953   3.22119   3.23055   3.23670   3.24558
 Alpha virt. eigenvalues --    3.24773   3.25499   3.27101   3.29053   3.29755
 Alpha virt. eigenvalues --    3.31061   3.31567   3.32228   3.32854   3.33550
 Alpha virt. eigenvalues --    3.34510   3.35042   3.35777   3.37071   3.37567
 Alpha virt. eigenvalues --    3.38299   3.40722   3.41234   3.41802   3.44059
 Alpha virt. eigenvalues --    3.45065   3.45989   3.48289   3.48541   3.49083
 Alpha virt. eigenvalues --    3.49526   3.50935   3.52033   3.54372   3.54895
 Alpha virt. eigenvalues --    3.57441   3.58214   3.59197   3.60926   3.61505
 Alpha virt. eigenvalues --    3.63728   3.66099   3.67485   3.70434   3.71045
 Alpha virt. eigenvalues --    3.71189   3.74601   3.75678   3.76621   3.77029
 Alpha virt. eigenvalues --    3.78296   3.79324   3.81414   3.84355   3.86747
 Alpha virt. eigenvalues --    3.87270   3.88776   3.91171   3.92011   3.96653
 Alpha virt. eigenvalues --    3.97494   3.98601   4.00081   4.01218   4.02841
 Alpha virt. eigenvalues --    4.05323   4.06418   4.07907   4.09257   4.09899
 Alpha virt. eigenvalues --    4.13303   4.15566   4.16160   4.19036   4.19849
 Alpha virt. eigenvalues --    4.20615   4.21280   4.23499   4.24130   4.26426
 Alpha virt. eigenvalues --    4.27513   4.29727   4.29909   4.32210   4.32459
 Alpha virt. eigenvalues --    4.33597   4.38810   4.40514   4.42031   4.42528
 Alpha virt. eigenvalues --    4.44982   4.48061   4.50645   4.53296   4.53903
 Alpha virt. eigenvalues --    4.59830   4.60627   4.61882   4.65150   4.66437
 Alpha virt. eigenvalues --    4.68444   4.70905   4.71963   4.72353   4.78375
 Alpha virt. eigenvalues --    4.80555   4.81513   4.88144   4.89385   4.92172
 Alpha virt. eigenvalues --    4.93385   4.94795   4.98214   5.00945   5.05512
 Alpha virt. eigenvalues --    5.08162   5.10248   5.12556   5.13958   5.14434
 Alpha virt. eigenvalues --    5.17671   5.18648   5.19242   5.21601   5.25414
 Alpha virt. eigenvalues --    5.26155   5.29276   5.30803   5.31661   5.34712
 Alpha virt. eigenvalues --    5.37278   5.41747   5.45066   5.48237   5.50295
 Alpha virt. eigenvalues --    5.53394   5.55842   5.58748   5.60939   5.66415
 Alpha virt. eigenvalues --    5.69654   5.72914   5.78480   5.82787   5.95244
 Alpha virt. eigenvalues --    5.97495   5.99671   6.12235   6.23065   6.27798
 Alpha virt. eigenvalues --    6.32413   6.32578   6.36091   6.39899   6.41340
 Alpha virt. eigenvalues --    6.41870   6.44636   6.46500   6.75214   6.83611
 Alpha virt. eigenvalues --    6.84983   6.87532   6.93041   6.93319   7.06109
 Alpha virt. eigenvalues --    7.12786   7.26908   7.41863   7.49587   7.54720
 Alpha virt. eigenvalues --   22.28737  22.41776  22.43963  22.48065  22.54402
 Alpha virt. eigenvalues --   22.74314  22.81965  22.87423  22.89932  23.01557
 Alpha virt. eigenvalues --   23.38177  32.51742  32.74813  43.85926  44.07044
 Alpha virt. eigenvalues --   44.11583
          Condensed to atoms (all electrons):
               1          2          3          4          5          6
     1  C    5.390517   0.278080   0.049747  -0.113742   0.014239   0.325510
     2  C    0.278080   5.429137   0.270660  -0.046111  -0.115887   0.007457
     3  C    0.049747   0.270660   5.384560   0.303881   0.034407  -0.135584
     4  C   -0.113742  -0.046111   0.303881   5.227613   0.336796   0.032574
     5  C    0.014239  -0.115887   0.034407   0.336796   5.221604   0.365702
     6  C    0.325510   0.007457  -0.135584   0.032574   0.365702   5.181096
     7  H   -0.067869   0.425065  -0.033434   0.009839  -0.004632   0.016464
     8  H   -0.002084   0.007745  -0.035573   0.419836  -0.050250   0.009936
     9  H    0.007748  -0.001268   0.013644  -0.044532   0.445881  -0.068932
    10  N   -0.096055   0.005386  -0.001961   0.008139  -0.066312   0.280131
    11  C    0.012292   0.000064   0.000429  -0.002254   0.001339  -0.078892
    12  H   -0.003247  -0.000075  -0.000041  -0.000115   0.004690  -0.020070
    13  H   -0.000061   0.000071  -0.000003   0.000051   0.001227   0.011936
    14  H    0.004576  -0.000121  -0.000192   0.000258  -0.012765   0.007774
    15  C    0.020295   0.004160  -0.000155  -0.000697  -0.011449  -0.078680
    16  H    0.003510   0.003187  -0.000368   0.000102   0.002324  -0.012162
    17  H    0.000030  -0.000104  -0.000006   0.000111  -0.000607   0.015546
    18  H   -0.002967  -0.000594  -0.000082  -0.000561   0.002768  -0.005206
    19  C    0.286629  -0.050601   0.017345  -0.002800   0.014534  -0.093596
    20  H   -0.046820   0.005631  -0.001791   0.000439  -0.000677  -0.005604
    21  H   -0.075280   0.011441   0.002826   0.000263  -0.000649   0.005551
    22  C   -0.051874   0.000025  -0.001137  -0.001185   0.009530   0.000371
    23  H    0.011975   0.000806  -0.000144   0.000040  -0.000182   0.000490
    24  H    0.005188  -0.005009   0.000253   0.000565  -0.001764   0.005230
    25  C    0.010350  -0.007048   0.001178   0.000134  -0.003218  -0.016734
    26  H    0.008687  -0.001157   0.000078   0.000088  -0.001697  -0.000033
    27  O    0.006304  -0.000293   0.000015   0.000065  -0.000710   0.000422
    28  N    0.007889  -0.065081   0.415865  -0.058513   0.007294  -0.001180
    29  O   -0.002709   0.023098  -0.169266   0.051269  -0.001834   0.001537
    30  O   -0.004124   0.044180  -0.167297   0.026156  -0.002554   0.002212
               7          8          9         10         11         12
     1  C   -0.067869  -0.002084   0.007748  -0.096055   0.012292  -0.003247
     2  C    0.425065   0.007745  -0.001268   0.005386   0.000064  -0.000075
     3  C   -0.033434  -0.035573   0.013644  -0.001961   0.000429  -0.000041
     4  C    0.009839   0.419836  -0.044532   0.008139  -0.002254  -0.000115
     5  C   -0.004632  -0.050250   0.445881  -0.066312   0.001339   0.004690
     6  C    0.016464   0.009936  -0.068932   0.280131  -0.078892  -0.020070
     7  H    0.492547  -0.000304   0.000049  -0.000193   0.000018  -0.000002
     8  H   -0.000304   0.483182  -0.006383  -0.000150  -0.000052   0.000034
     9  H    0.000049  -0.006383   0.539413  -0.004098   0.000947   0.002268
    10  N   -0.000193  -0.000150  -0.004098   6.746599   0.271548  -0.030578
    11  C    0.000018  -0.000052   0.000947   0.271548   4.925979   0.397167
    12  H   -0.000002   0.000034   0.002268  -0.030578   0.397167   0.613592
    13  H    0.000000  -0.000002   0.000159  -0.043154   0.408156  -0.039198
    14  H    0.000004  -0.000002  -0.003014  -0.042389   0.420215  -0.037145
    15  C    0.000058   0.000018  -0.000502   0.257136  -0.060025  -0.011349
    16  H    0.000047  -0.000001   0.000043  -0.034179   0.009864  -0.000428
    17  H    0.000002  -0.000001  -0.000042  -0.054756  -0.003899  -0.003330
    18  H   -0.000008   0.000012   0.000216  -0.031726  -0.010092   0.015301
    19  C   -0.011995   0.000112  -0.000282   0.040744  -0.004086   0.000531
    20  H    0.000753  -0.000002   0.000001  -0.015278   0.000570  -0.000129
    21  H    0.003837  -0.000001   0.000013   0.000889  -0.000056   0.000007
    22  C    0.000104  -0.000005   0.000023  -0.023985   0.004537  -0.000340
    23  H    0.000020   0.000000  -0.000002   0.000730  -0.000051   0.000004
    24  H    0.000422  -0.000002  -0.000006  -0.002491  -0.000235  -0.000022
    25  C   -0.000071   0.000000   0.000034   0.051395  -0.010970   0.002873
    26  H    0.000004   0.000000  -0.000018  -0.011948   0.001788  -0.000510
    27  O    0.000005   0.000000  -0.000019  -0.016334   0.000087   0.000066
    28  N   -0.007688  -0.006796  -0.000170   0.000000  -0.000001   0.000000
    29  O    0.001551   0.025905  -0.000130   0.000001   0.000000   0.000000
    30  O    0.029945   0.001337   0.000003   0.000001   0.000000   0.000000
              13         14         15         16         17         18
     1  C   -0.000061   0.004576   0.020295   0.003510   0.000030  -0.002967
     2  C    0.000071  -0.000121   0.004160   0.003187  -0.000104  -0.000594
     3  C   -0.000003  -0.000192  -0.000155  -0.000368  -0.000006  -0.000082
     4  C    0.000051   0.000258  -0.000697   0.000102   0.000111  -0.000561
     5  C    0.001227  -0.012765  -0.011449   0.002324  -0.000607   0.002768
     6  C    0.011936   0.007774  -0.078680  -0.012162   0.015546  -0.005206
     7  H    0.000000   0.000004   0.000058   0.000047   0.000002  -0.000008
     8  H   -0.000002  -0.000002   0.000018  -0.000001  -0.000001   0.000012
     9  H    0.000159  -0.003014  -0.000502   0.000043  -0.000042   0.000216
    10  N   -0.043154  -0.042389   0.257136  -0.034179  -0.054756  -0.031726
    11  C    0.408156   0.420215  -0.060025   0.009864  -0.003899  -0.010092
    12  H   -0.039198  -0.037145  -0.011349  -0.000428  -0.003330   0.015301
    13  H    0.540947  -0.010955  -0.003321   0.000346   0.005148  -0.003734
    14  H   -0.010955   0.508818   0.009341  -0.000321   0.000551  -0.000895
    15  C   -0.003321   0.009341   4.949581   0.416651   0.412184   0.390370
    16  H    0.000346  -0.000321   0.416651   0.537313  -0.022267  -0.027456
    17  H    0.005148   0.000551   0.412184  -0.022267   0.562191  -0.039001
    18  H   -0.003734  -0.000895   0.390370  -0.027456  -0.039001   0.596777
    19  C   -0.000591  -0.000657  -0.023145  -0.014655  -0.001054   0.003307
    20  H    0.000136   0.000131   0.002682   0.004026   0.000534  -0.000753
    21  H    0.000001  -0.000004   0.000196   0.000105  -0.000061   0.000004
    22  C    0.002752  -0.001375   0.010905   0.001969   0.000434  -0.001091
    23  H   -0.000038   0.000026  -0.000090  -0.000067  -0.000038   0.000013
    24  H   -0.000059   0.000413  -0.000348   0.000013   0.000049   0.000005
    25  C   -0.006821  -0.002652  -0.011381  -0.000928  -0.003453   0.001659
    26  H   -0.001148   0.001637  -0.007306  -0.000411   0.004949  -0.000010
    27  O    0.004138   0.004016   0.001601   0.000021   0.000007  -0.000099
    28  N    0.000000   0.000000   0.000000   0.000001   0.000000  -0.000001
    29  O    0.000000   0.000000   0.000000   0.000000   0.000000   0.000000
    30  O    0.000000   0.000000   0.000000   0.000000   0.000000   0.000000
              19         20         21         22         23         24
     1  C    0.286629  -0.046820  -0.075280  -0.051874   0.011975   0.005188
     2  C   -0.050601   0.005631   0.011441   0.000025   0.000806  -0.005009
     3  C    0.017345  -0.001791   0.002826  -0.001137  -0.000144   0.000253
     4  C   -0.002800   0.000439   0.000263  -0.001185   0.000040   0.000565
     5  C    0.014534  -0.000677  -0.000649   0.009530  -0.000182  -0.001764
     6  C   -0.093596  -0.005604   0.005551   0.000371   0.000490   0.005230
     7  H   -0.011995   0.000753   0.003837   0.000104   0.000020   0.000422
     8  H    0.000112  -0.000002  -0.000001  -0.000005   0.000000  -0.000002
     9  H   -0.000282   0.000001   0.000013   0.000023  -0.000002  -0.000006
    10  N    0.040744  -0.015278   0.000889  -0.023985   0.000730  -0.002491
    11  C   -0.004086   0.000570  -0.000056   0.004537  -0.000051  -0.000235
    12  H    0.000531  -0.000129   0.000007  -0.000340   0.000004  -0.000022
    13  H   -0.000591   0.000136   0.000001   0.002752  -0.000038  -0.000059
    14  H   -0.000657   0.000131  -0.000004  -0.001375   0.000026   0.000413
    15  C   -0.023145   0.002682   0.000196   0.010905  -0.000090  -0.000348
    16  H   -0.014655   0.004026   0.000105   0.001969  -0.000067   0.000013
    17  H   -0.001054   0.000534  -0.000061   0.000434  -0.000038   0.000049
    18  H    0.003307  -0.000753   0.000004  -0.001091   0.000013   0.000005
    19  C    5.067786   0.422788   0.423973   0.156655  -0.041308  -0.016245
    20  H    0.422788   0.600803  -0.026308  -0.052081   0.002522   0.006514
    21  H    0.423973  -0.026308   0.565112  -0.020529  -0.011279  -0.002045
    22  C    0.156655  -0.052081  -0.020529   5.614610   0.357966   0.310737
    23  H   -0.041308   0.002522  -0.011279   0.357966   0.596687  -0.016267
    24  H   -0.016245   0.006514  -0.002045   0.310737  -0.016267   0.573202
    25  C    0.005766  -0.007407   0.003625   0.146349  -0.021217   0.004727
    26  H    0.021547   0.008264  -0.001149  -0.229905   0.006989   0.015410
    27  O    0.004117   0.000348  -0.000392  -0.134974   0.003331   0.017423
    28  N   -0.000302   0.000006  -0.000046   0.000033   0.000000  -0.000018
    29  O   -0.000003   0.000000   0.000000  -0.000001   0.000000   0.000000
    30  O   -0.000449  -0.000003  -0.000043   0.000019   0.000000  -0.000012
              25         26         27         28         29         30
     1  C    0.010350   0.008687   0.006304   0.007889  -0.002709  -0.004124
     2  C   -0.007048  -0.001157  -0.000293  -0.065081   0.023098   0.044180
     3  C    0.001178   0.000078   0.000015   0.415865  -0.169266  -0.167297
     4  C    0.000134   0.000088   0.000065  -0.058513   0.051269   0.026156
     5  C   -0.003218  -0.001697  -0.000710   0.007294  -0.001834  -0.002554
     6  C   -0.016734  -0.000033   0.000422  -0.001180   0.001537   0.002212
     7  H   -0.000071   0.000004   0.000005  -0.007688   0.001551   0.029945
     8  H    0.000000   0.000000   0.000000  -0.006796   0.025905   0.001337
     9  H    0.000034  -0.000018  -0.000019  -0.000170  -0.000130   0.000003
    10  N    0.051395  -0.011948  -0.016334   0.000000   0.000001   0.000001
    11  C   -0.010970   0.001788   0.000087  -0.000001   0.000000   0.000000
    12  H    0.002873  -0.000510   0.000066   0.000000   0.000000   0.000000
    13  H   -0.006821  -0.001148   0.004138   0.000000   0.000000   0.000000
    14  H   -0.002652   0.001637   0.004016   0.000000   0.000000   0.000000
    15  C   -0.011381  -0.007306   0.001601   0.000000   0.000000   0.000000
    16  H   -0.000928  -0.000411   0.000021   0.000001   0.000000   0.000000
    17  H   -0.003453   0.004949   0.000007   0.000000   0.000000   0.000000
    18  H    0.001659  -0.000010  -0.000099  -0.000001   0.000000   0.000000
    19  C    0.005766   0.021547   0.004117  -0.000302  -0.000003  -0.000449
    20  H   -0.007407   0.008264   0.000348   0.000006   0.000000  -0.000003
    21  H    0.003625  -0.001149  -0.000392  -0.000046   0.000000  -0.000043
    22  C    0.146349  -0.229905  -0.134974   0.000033  -0.000001   0.000019
    23  H   -0.021217   0.006989   0.003331   0.000000   0.000000   0.000000
    24  H    0.004727   0.015410   0.017423  -0.000018   0.000000  -0.000012
    25  C    4.658418   0.435172   0.668914  -0.000003   0.000000   0.000000
    26  H    0.435172   0.785726  -0.074259   0.000000   0.000000   0.000000
    27  O    0.668914  -0.074259   7.795183   0.000000   0.000000   0.000000
    28  N   -0.000003   0.000000   0.000000   5.510677   0.388888   0.388142
    29  O    0.000000   0.000000   0.000000   0.388888   8.120555  -0.123630
    30  O    0.000000   0.000000   0.000000   0.388142  -0.123630   8.122360
 Mulliken charges:
               1
     1  C    0.023264
     2  C   -0.222845
     3  C    0.052147
     4  C   -0.147709
     5  C   -0.187148
     6  C    0.246735
     7  H    0.145466
     8  H    0.153491
     9  H    0.118953
    10  N   -0.187113
    11  C   -0.284388
    12  H    0.110046
    13  H    0.134017
    14  H    0.154727
    15  C   -0.266729
    16  H    0.133722
    17  H    0.126883
    18  H    0.113844
    19  C   -0.204063
    20  H    0.100708
    21  H    0.120000
    22  C   -0.098537
    23  H    0.109084
    24  H    0.104373
    25  C    0.101311
    26  H    0.039213
    27  O   -0.278980
    28  N    0.421006
    29  O   -0.315230
    30  O   -0.316245
 Sum of Mulliken charges =   0.00000
 Mulliken charges with hydrogens summed into heavy atoms:
               1
     1  C    0.023264
     2  C   -0.077380
     3  C    0.052147
     4  C    0.005782
     5  C   -0.068195
     6  C    0.246735
    10  N   -0.187113
    11  C    0.114401
    15  C    0.107720
    19  C    0.016646
    22  C    0.114919
    25  C    0.140524
    27  O   -0.278980
    28  N    0.421006
    29  O   -0.315230
    30  O   -0.316245
 Electronic spatial extent (au):  <R**2>=           4047.5490
 Charge=              0.0000 electrons
 Dipole moment (field-independent basis, Debye):
    X=             -4.5011    Y=             -1.1703    Z=              3.0230  Tot=              5.5469
 Quadrupole moment (field-independent basis, Debye-Ang):
   XX=           -122.2804   YY=            -86.5630   ZZ=            -98.0578
   XY=             -0.9119   XZ=             -8.8902   YZ=              2.9854
 Traceless Quadrupole moment (field-independent basis, Debye-Ang):
   XX=            -19.9800   YY=             15.7374   ZZ=              4.2426
   XY=             -0.9119   XZ=             -8.8902   YZ=              2.9854
 Octapole moment (field-independent basis, Debye-Ang**2):
  XXX=            -93.4388  YYY=              4.1682  ZZZ=              5.7095  XYY=            -13.3807
  XXY=            -18.5848  XXZ=             39.2010  XZZ=             18.4952  YZZ=             -3.3706
  YYZ=             -3.9350  XYZ=             -9.2350
 Hexadecapole moment (field-independent basis, Debye-Ang**3):
 XXXX=          -4240.0764 YYYY=          -1077.3561 ZZZZ=           -505.9999 XXXY=             -9.0379
 XXXZ=            -61.9719 YYYX=            -28.8739 YYYZ=             13.4713 ZZZX=            -31.3384
 ZZZY=              5.5854 XXYY=           -791.3382 XXZZ=           -728.7704 YYZZ=           -271.2702
 XXYZ=              6.8928 YYXZ=             -4.8618 ZZXY=             24.4238
 N-N= 1.113746421978D+03 E-N=-4.006934912765D+03  KE= 7.593407241623D+02
 Running external command "gaunbo6 R"
         input file       "/home/aloke/aloke/prakash/Gau-43910.EIn"
         output file      "/home/aloke/aloke/prakash/Gau-43910.EOu"
         message file     "/home/aloke/aloke/prakash/Gau-43910.EMs"
         fchk file        "/home/aloke/aloke/prakash/Gau-43910.EFC"
         mat. el file     "/home/aloke/aloke/prakash/Gau-43910.EUF"

 Writing Wrt12E file "/home/aloke/aloke/prakash/Gau-43910.EUF"
 Gaussian matrix elements                                         Version   1 NLab= 7 Len12L=8 Len4L=8
 Write GAUSSIAN SCALARS               from file   501 offset           0 to matrix element file.
 Write OVERLAP                        from file   514 offset           0 to matrix element file.
 Write CORE HAMILTONIAN ALPHA         from file   515 offset           0 to matrix element file.
 Write CORE HAMILTONIAN BETA          from file   515 offset      168490 to matrix element file.
 Write KINETIC ENERGY                 from file   516 offset           0 to matrix element file.
 Write ORTHOGONAL BASIS               from file   685 offset           0 to matrix element file.
 Write DIPOLE INTEGRALS               from file   518 offset           0 to matrix element file.
 Array DIP VEL INTEGRALS               on  file    572 does not exist.
 Array R X DEL INTEGRALS               on  file    572 does not exist.
 Write ALPHA ORBITAL ENERGIES         from file     0 offset           0 to matrix element file.
 Write ALPHA MO COEFFICIENTS          from file 10524 offset           0 to matrix element file.
 Write ALPHA DENSITY MATRIX           from file     0 offset           0 to matrix element file.
 Write ALPHA SCF DENSITY MATRIX       from file 10528 offset           0 to matrix element file.
 Write ALPHA FOCK MATRIX              from file 10536 offset           0 to matrix element file.
 No 2e integrals to process.
 Perform NBO analysis...

 *********************************** NBO 6.0 ***********************************
             N A T U R A L   A T O M I C   O R B I T A L   A N D
          N A T U R A L   B O N D   O R B I T A L   A N A L Y S I S
 ************************* Aloke Das Software (101058) *************************
  (c) Copyright 1996-2016 Board of Regents of the University of Wisconsin System
      on behalf of the Theoretical Chemistry Institute.  All rights reserved.

          Cite this program as:

          NBO 6.0.  E. D. Glendening, J. K. Badenhoop, A. E. Reed,
          J. E. Carpenter, J. A. Bohmann, C. M. Morales, C. R. Landis,
          and F. Weinhold (Theoretical Chemistry Institute, University
          of Wisconsin, Madison, WI, 2013); http://nbo6.chem.wisc.edu/

       /E2PERT / : Analyze NBO Fock matrix
                   Print threshold set to 0.1
       /AONBO  / : Checkpoint the AO to NBO transformation
                   NBOs sorted by occupancy

 Filename set to /home/aloke/aloke/prakash/Gau-43910

 Job title:  Energy Optimisation and Frequency calculation


 NATURAL POPULATIONS:  Natural atomic orbital occupancies

  NAO Atom No lang   Type(AO)    Occupancy      Energy
 -------------------------------------------------------
   1    C  1  s      Cor( 1s)     1.99999     -10.21102
   2    C  1  s      Val( 2s)     0.92194      -0.12795
   3    C  1  s      Ryd( 3s)     0.00080       1.59595
   4    C  1  s      Ryd( 4s)     0.00013       2.45222
   5    C  1  s      Ryd( 5s)     0.00000      19.60120
   6    C  1  px     Val( 2p)     1.04889      -0.04124
   7    C  1  px     Ryd( 3p)     0.00403       1.04006
   8    C  1  px     Ryd( 4p)     0.00037       2.29722
   9    C  1  py     Val( 2p)     1.03389      -0.04499
  10    C  1  py     Ryd( 3p)     0.00340       1.07001
  11    C  1  py     Ryd( 4p)     0.00021       2.05366
  12    C  1  pz     Val( 2p)     1.01041      -0.12238
  13    C  1  pz     Ryd( 3p)     0.00222       0.77255
  14    C  1  pz     Ryd( 4p)     0.00010       1.52775
  15    C  1  dxy    Ryd( 3d)     0.00088       2.72863
  16    C  1  dxy    Ryd( 4d)     0.00067       3.91726
  17    C  1  dxz    Ryd( 3d)     0.00042       1.82381
  18    C  1  dxz    Ryd( 4d)     0.00026       3.45141
  19    C  1  dyz    Ryd( 3d)     0.00049       2.09326
  20    C  1  dyz    Ryd( 4d)     0.00022       3.49595
  21    C  1  dx2y2  Ryd( 3d)     0.00106       2.80040
  22    C  1  dx2y2  Ryd( 4d)     0.00056       4.03907
  23    C  1  dz2    Ryd( 3d)     0.00082       2.87680
  24    C  1  dz2    Ryd( 4d)     0.00007       3.61924
  25    C  1  f(0)   Ryd( 4f)     0.00043       3.32856
  26    C  1  f(c1)  Ryd( 4f)     0.00029       3.38102
  27    C  1  f(s1)  Ryd( 4f)     0.00034       3.32435
  28    C  1  f(c2)  Ryd( 4f)     0.00008       3.40686
  29    C  1  f(s2)  Ryd( 4f)     0.00019       3.42087
  30    C  1  f(c3)  Ryd( 4f)     0.00050       3.83401
  31    C  1  f(s3)  Ryd( 4f)     0.00028       3.81444

  32    C  2  s      Cor( 1s)     1.99999     -10.20596
  33    C  2  s      Val( 2s)     0.97361      -0.14285
  34    C  2  s      Ryd( 3s)     0.00067       2.97573
  35    C  2  s      Ryd( 4s)     0.00009       5.16826
  36    C  2  s      Ryd( 5s)     0.00001      13.43925
  37    C  2  px     Val( 2p)     1.05892      -0.04456
  38    C  2  px     Ryd( 3p)     0.00301       0.99569
  39    C  2  px     Ryd( 4p)     0.00019       2.04199
  40    C  2  py     Val( 2p)     1.14764      -0.07619
  41    C  2  py     Ryd( 3p)     0.00381       1.13561
  42    C  2  py     Ryd( 4p)     0.00019       2.16662
  43    C  2  pz     Val( 2p)     0.97477      -0.12576
  44    C  2  pz     Ryd( 3p)     0.00157       0.72611
  45    C  2  pz     Ryd( 4p)     0.00020       1.38648
  46    C  2  dxy    Ryd( 3d)     0.00159       2.18947
  47    C  2  dxy    Ryd( 4d)     0.00043       3.95587
  48    C  2  dxz    Ryd( 3d)     0.00058       1.70611
  49    C  2  dxz    Ryd( 4d)     0.00017       3.32456
  50    C  2  dyz    Ryd( 3d)     0.00084       1.70462
  51    C  2  dyz    Ryd( 4d)     0.00007       3.15348
  52    C  2  dx2y2  Ryd( 3d)     0.00124       2.21724
  53    C  2  dx2y2  Ryd( 4d)     0.00048       3.94187
  54    C  2  dz2    Ryd( 3d)     0.00106       1.91317
  55    C  2  dz2    Ryd( 4d)     0.00005       3.36787
  56    C  2  f(0)   Ryd( 4f)     0.00040       3.29341
  57    C  2  f(c1)  Ryd( 4f)     0.00031       3.40964
  58    C  2  f(s1)  Ryd( 4f)     0.00033       3.21374
  59    C  2  f(c2)  Ryd( 4f)     0.00019       3.38898
  60    C  2  f(s2)  Ryd( 4f)     0.00019       3.40665
  61    C  2  f(c3)  Ryd( 4f)     0.00045       3.83054
  62    C  2  f(s3)  Ryd( 4f)     0.00030       3.72426

  63    C  3  s      Cor( 1s)     1.99999     -10.23924
  64    C  3  s      Val( 2s)     0.92271      -0.15055
  65    C  3  s      Ryd( 3s)     0.00087       1.87546
  66    C  3  s      Ryd( 4s)     0.00011       2.28871
  67    C  3  s      Ryd( 5s)     0.00000      20.97734
  68    C  3  px     Val( 2p)     0.87507      -0.06012
  69    C  3  px     Ryd( 3p)     0.00516       1.01893
  70    C  3  px     Ryd( 4p)     0.00028       1.81541
  71    C  3  py     Val( 2p)     1.08112      -0.06756
  72    C  3  py     Ryd( 3p)     0.00507       1.15568
  73    C  3  py     Ryd( 4p)     0.00036       1.85800
  74    C  3  pz     Val( 2p)     1.08308      -0.13948
  75    C  3  pz     Ryd( 3p)     0.00197       0.79837
  76    C  3  pz     Ryd( 4p)     0.00015       1.35384
  77    C  3  dxy    Ryd( 3d)     0.00103       2.79301
  78    C  3  dxy    Ryd( 4d)     0.00049       3.99143
  79    C  3  dxz    Ryd( 3d)     0.00049       1.80950
  80    C  3  dxz    Ryd( 4d)     0.00016       3.36553
  81    C  3  dyz    Ryd( 3d)     0.00066       1.97599
  82    C  3  dyz    Ryd( 4d)     0.00025       3.56047
  83    C  3  dx2y2  Ryd( 3d)     0.00075       2.90843
  84    C  3  dx2y2  Ryd( 4d)     0.00071       4.04852
  85    C  3  dz2    Ryd( 3d)     0.00063       2.51054
  86    C  3  dz2    Ryd( 4d)     0.00017       3.58469
  87    C  3  f(0)   Ryd( 4f)     0.00036       3.37576
  88    C  3  f(c1)  Ryd( 4f)     0.00023       3.44211
  89    C  3  f(s1)  Ryd( 4f)     0.00036       3.35626
  90    C  3  f(c2)  Ryd( 4f)     0.00015       3.47873
  91    C  3  f(s2)  Ryd( 4f)     0.00023       3.44702
  92    C  3  f(c3)  Ryd( 4f)     0.00043       3.88155
  93    C  3  f(s3)  Ryd( 4f)     0.00030       3.84828

  94    C  4  s      Cor( 1s)     1.99999     -10.20728
  95    C  4  s      Val( 2s)     0.97883      -0.14781
  96    C  4  s      Ryd( 3s)     0.00080       2.11699
  97    C  4  s      Ryd( 4s)     0.00005       3.56149
  98    C  4  s      Ryd( 5s)     0.00000      16.52494
  99    C  4  px     Val( 2p)     1.10583      -0.05485
 100    C  4  px     Ryd( 3p)     0.00368       1.07834
 101    C  4  px     Ryd( 4p)     0.00017       1.99558
 102    C  4  py     Val( 2p)     1.08814      -0.06528
 103    C  4  py     Ryd( 3p)     0.00346       0.99316
 104    C  4  py     Ryd( 4p)     0.00017       1.96090
 105    C  4  pz     Val( 2p)     0.97983      -0.12569
 106    C  4  pz     Ryd( 3p)     0.00170       0.73580
 107    C  4  pz     Ryd( 4p)     0.00018       1.39934
 108    C  4  dxy    Ryd( 3d)     0.00077       2.20822
 109    C  4  dxy    Ryd( 4d)     0.00062       3.88895
 110    C  4  dxz    Ryd( 3d)     0.00050       1.76107
 111    C  4  dxz    Ryd( 4d)     0.00018       3.13010
 112    C  4  dyz    Ryd( 3d)     0.00083       1.78241
 113    C  4  dyz    Ryd( 4d)     0.00010       3.17562
 114    C  4  dx2y2  Ryd( 3d)     0.00175       2.18807
 115    C  4  dx2y2  Ryd( 4d)     0.00022       3.84599
 116    C  4  dz2    Ryd( 3d)     0.00102       1.89513
 117    C  4  dz2    Ryd( 4d)     0.00003       3.25180
 118    C  4  f(0)   Ryd( 4f)     0.00043       3.32307
 119    C  4  f(c1)  Ryd( 4f)     0.00026       3.33244
 120    C  4  f(s1)  Ryd( 4f)     0.00029       3.24218
 121    C  4  f(c2)  Ryd( 4f)     0.00009       3.37559
 122    C  4  f(s2)  Ryd( 4f)     0.00029       3.46104
 123    C  4  f(c3)  Ryd( 4f)     0.00041       3.76784
 124    C  4  f(s3)  Ryd( 4f)     0.00029       3.74869

 125    C  5  s      Cor( 1s)     1.99999     -10.20146
 126    C  5  s      Val( 2s)     0.97412      -0.14728
 127    C  5  s      Ryd( 3s)     0.00096       1.81374
 128    C  5  s      Ryd( 4s)     0.00006       2.50636
 129    C  5  s      Ryd( 5s)     0.00000      20.49244
 130    C  5  px     Val( 2p)     1.05996      -0.04749
 131    C  5  px     Ryd( 3p)     0.00247       0.96367
 132    C  5  px     Ryd( 4p)     0.00019       1.98526
 133    C  5  py     Val( 2p)     1.13858      -0.07444
 134    C  5  py     Ryd( 3p)     0.00315       1.09972
 135    C  5  py     Ryd( 4p)     0.00032       1.95011
 136    C  5  pz     Val( 2p)     1.04654      -0.12663
 137    C  5  pz     Ryd( 3p)     0.00199       0.72509
 138    C  5  pz     Ryd( 4p)     0.00018       1.35447
 139    C  5  dxy    Ryd( 3d)     0.00142       2.17669
 140    C  5  dxy    Ryd( 4d)     0.00038       3.83045
 141    C  5  dxz    Ryd( 3d)     0.00042       1.78682
 142    C  5  dxz    Ryd( 4d)     0.00018       3.27220
 143    C  5  dyz    Ryd( 3d)     0.00077       1.88273
 144    C  5  dyz    Ryd( 4d)     0.00007       3.08572
 145    C  5  dx2y2  Ryd( 3d)     0.00089       2.25450
 146    C  5  dx2y2  Ryd( 4d)     0.00039       3.87720
 147    C  5  dz2    Ryd( 3d)     0.00096       1.97868
 148    C  5  dz2    Ryd( 4d)     0.00003       3.24790
 149    C  5  f(0)   Ryd( 4f)     0.00038       3.31809
 150    C  5  f(c1)  Ryd( 4f)     0.00031       3.40012
 151    C  5  f(s1)  Ryd( 4f)     0.00032       3.20605
 152    C  5  f(c2)  Ryd( 4f)     0.00020       3.41462
 153    C  5  f(s2)  Ryd( 4f)     0.00019       3.41648
 154    C  5  f(c3)  Ryd( 4f)     0.00040       3.79967
 155    C  5  f(s3)  Ryd( 4f)     0.00027       3.69041

 156    C  6  s      Cor( 1s)     1.99999     -10.24103
 157    C  6  s      Val( 2s)     0.87634      -0.11593
 158    C  6  s      Ryd( 3s)     0.00115       1.20771
 159    C  6  s      Ryd( 4s)     0.00019       1.90529
 160    C  6  s      Ryd( 5s)     0.00000      20.26687
 161    C  6  px     Val( 2p)     0.89907      -0.02122
 162    C  6  px     Ryd( 3p)     0.00478       1.08316
 163    C  6  px     Ryd( 4p)     0.00048       1.91397
 164    C  6  py     Val( 2p)     1.03942      -0.04950
 165    C  6  py     Ryd( 3p)     0.00285       0.90450
 166    C  6  py     Ryd( 4p)     0.00046       1.99748
 167    C  6  pz     Val( 2p)     0.97892      -0.12300
 168    C  6  pz     Ryd( 3p)     0.00295       0.73813
 169    C  6  pz     Ryd( 4p)     0.00020       1.56739
 170    C  6  dxy    Ryd( 3d)     0.00105       3.15854
 171    C  6  dxy    Ryd( 4d)     0.00066       3.73044
 172    C  6  dxz    Ryd( 3d)     0.00058       2.53570
 173    C  6  dxz    Ryd( 4d)     0.00032       3.06174
 174    C  6  dyz    Ryd( 3d)     0.00051       2.52991
 175    C  6  dyz    Ryd( 4d)     0.00019       3.04220
 176    C  6  dx2y2  Ryd( 4d)     0.00069       3.60132
 177    C  6  dx2y2  Ryd( 3d)     0.00101       3.81100
 178    C  6  dz2    Ryd( 3d)     0.00052       3.27798
 179    C  6  dz2    Ryd( 4d)     0.00015       3.03913
 180    C  6  f(0)   Ryd( 4f)     0.00033       3.40337
 181    C  6  f(c1)  Ryd( 4f)     0.00021       3.40982
 182    C  6  f(s1)  Ryd( 4f)     0.00028       3.35440
 183    C  6  f(c2)  Ryd( 4f)     0.00015       3.49840
 184    C  6  f(s2)  Ryd( 4f)     0.00023       3.47841
 185    C  6  f(c3)  Ryd( 4f)     0.00036       3.81537
 186    C  6  f(s3)  Ryd( 4f)     0.00026       3.81416

 187    H  7  s      Val( 1s)     0.75686       0.04050
 188    H  7  s      Ryd( 2s)     0.00075       1.13483
 189    H  7  s      Ryd( 3s)     0.00008       1.51883
 190    H  7  px     Ryd( 2p)     0.00022       2.63329
 191    H  7  py     Ryd( 2p)     0.00062       2.79343
 192    H  7  pz     Ryd( 2p)     0.00014       2.21045

 193    H  8  s      Val( 1s)     0.75210       0.04370
 194    H  8  s      Ryd( 2s)     0.00051       1.16489
 195    H  8  s      Ryd( 3s)     0.00009       1.43967
 196    H  8  px     Ryd( 2p)     0.00042       2.67832
 197    H  8  py     Ryd( 2p)     0.00031       2.68710
 198    H  8  pz     Ryd( 2p)     0.00018       2.24762

 199    H  9  s      Val( 1s)     0.77882       0.02950
 200    H  9  s      Ryd( 2s)     0.00081       0.74284
 201    H  9  s      Ryd( 3s)     0.00009       1.88877
 202    H  9  px     Ryd( 2p)     0.00013       2.59552
 203    H  9  py     Ryd( 2p)     0.00066       2.77998
 204    H  9  pz     Ryd( 2p)     0.00019       2.21586

 205    N 10  s      Cor( 1s)     1.99999     -14.35121
 206    N 10  s      Val( 2s)     1.24096      -0.43374
 207    N 10  s      Ryd( 3s)     0.00117       1.32992
 208    N 10  s      Ryd( 4s)     0.00004       5.80227
 209    N 10  s      Ryd( 5s)     0.00000      25.32497
 210    N 10  px     Val( 2p)     1.31479      -0.20517
 211    N 10  px     Ryd( 3p)     0.00350       0.73603
 212    N 10  px     Ryd( 4p)     0.00014       3.09279
 213    N 10  py     Val( 2p)     1.60146      -0.23932
 214    N 10  py     Ryd( 3p)     0.00821       0.86702
 215    N 10  py     Ryd( 4p)     0.00013       2.78604
 216    N 10  pz     Val( 2p)     1.24092      -0.20600
 217    N 10  pz     Ryd( 3p)     0.00274       0.80784
 218    N 10  pz     Ryd( 4p)     0.00009       2.92096
 219    N 10  dxy    Ryd( 3d)     0.00118       2.54683
 220    N 10  dxy    Ryd( 4d)     0.00018       5.06993
 221    N 10  dxz    Ryd( 3d)     0.00028       2.09169
 222    N 10  dxz    Ryd( 4d)     0.00021       4.97873
 223    N 10  dyz    Ryd( 3d)     0.00169       1.98892
 224    N 10  dyz    Ryd( 4d)     0.00012       5.01185
 225    N 10  dx2y2  Ryd( 3d)     0.00231       2.31812
 226    N 10  dx2y2  Ryd( 4d)     0.00007       5.25723
 227    N 10  dz2    Ryd( 3d)     0.00182       2.15149
 228    N 10  dz2    Ryd( 4d)     0.00012       5.16494
 229    N 10  f(0)   Ryd( 4f)     0.00010       4.78230
 230    N 10  f(c1)  Ryd( 4f)     0.00013       4.85380
 231    N 10  f(s1)  Ryd( 4f)     0.00009       4.69890
 232    N 10  f(c2)  Ryd( 4f)     0.00006       4.69079
 233    N 10  f(s2)  Ryd( 4f)     0.00012       4.56021
 234    N 10  f(c3)  Ryd( 4f)     0.00021       4.66786
 235    N 10  f(s3)  Ryd( 4f)     0.00012       4.72867

 236    C 11  s      Cor( 1s)     1.99999     -10.20969
 237    C 11  s      Val( 2s)     1.08530      -0.22671
 238    C 11  s      Ryd( 3s)     0.00088       1.32992
 239    C 11  s      Ryd( 4s)     0.00002       2.03080
 240    C 11  s      Ryd( 5s)     0.00000      21.67921
 241    C 11  px     Val( 2p)     1.16177      -0.12100
 242    C 11  px     Ryd( 3p)     0.00186       0.72782
 243    C 11  px     Ryd( 4p)     0.00012       1.59128
 244    C 11  py     Val( 2p)     1.06879      -0.10098
 245    C 11  py     Ryd( 3p)     0.00146       0.68983
 246    C 11  py     Ryd( 4p)     0.00039       1.57943
 247    C 11  pz     Val( 2p)     1.07568      -0.10827
 248    C 11  pz     Ryd( 3p)     0.00202       0.63059
 249    C 11  pz     Ryd( 4p)     0.00006       1.52403
 250    C 11  dxy    Ryd( 3d)     0.00055       2.16094
 251    C 11  dxy    Ryd( 4d)     0.00007       2.70112
 252    C 11  dxz    Ryd( 3d)     0.00071       2.13597
 253    C 11  dxz    Ryd( 4d)     0.00007       2.67035
 254    C 11  dyz    Ryd( 3d)     0.00080       2.54339
 255    C 11  dyz    Ryd( 4d)     0.00010       2.81954
 256    C 11  dx2y2  Ryd( 3d)     0.00163       1.97434
 257    C 11  dx2y2  Ryd( 4d)     0.00010       3.09530
 258    C 11  dz2    Ryd( 3d)     0.00119       1.96934
 259    C 11  dz2    Ryd( 4d)     0.00010       3.05064
 260    C 11  f(0)   Ryd( 4f)     0.00014       3.49631
 261    C 11  f(c1)  Ryd( 4f)     0.00016       3.59367
 262    C 11  f(s1)  Ryd( 4f)     0.00018       3.59161
 263    C 11  f(c2)  Ryd( 4f)     0.00004       3.39763
 264    C 11  f(s2)  Ryd( 4f)     0.00004       3.41908
 265    C 11  f(c3)  Ryd( 4f)     0.00023       3.62814
 266    C 11  f(s3)  Ryd( 4f)     0.00009       3.41827

 267    H 12  s      Val( 1s)     0.82778      -0.00109
 268    H 12  s      Ryd( 2s)     0.00235       0.56400
 269    H 12  s      Ryd( 3s)     0.00005       2.00543
 270    H 12  px     Ryd( 2p)     0.00011       2.15692
 271    H 12  py     Ryd( 2p)     0.00080       2.76189
 272    H 12  pz     Ryd( 2p)     0.00011       2.15588

 273    H 13  s      Val( 1s)     0.78877       0.02061
 274    H 13  s      Ryd( 2s)     0.00075       0.64693
 275    H 13  s      Ryd( 3s)     0.00005       1.89632
 276    H 13  px     Ryd( 2p)     0.00086       2.79443
 277    H 13  py     Ryd( 2p)     0.00008       2.16131
 278    H 13  pz     Ryd( 2p)     0.00009       2.16723

 279    H 14  s      Val( 1s)     0.77942       0.02765
 280    H 14  s      Ryd( 2s)     0.00055       0.51970
 281    H 14  s      Ryd( 3s)     0.00005       2.06209
 282    H 14  px     Ryd( 2p)     0.00011       2.19983
 283    H 14  py     Ryd( 2p)     0.00012       2.19764
 284    H 14  pz     Ryd( 2p)     0.00071       2.79268

 285    C 15  s      Cor( 1s)     1.99999     -10.22006
 286    C 15  s      Val( 2s)     1.08671      -0.23695
 287    C 15  s      Ryd( 3s)     0.00091       1.25811
 288    C 15  s      Ryd( 4s)     0.00003       2.15597
 289    C 15  s      Ryd( 5s)     0.00000      21.45217
 290    C 15  px     Val( 2p)     1.17508      -0.13025
 291    C 15  px     Ryd( 3p)     0.00148       0.70215
 292    C 15  px     Ryd( 4p)     0.00012       1.50806
 293    C 15  py     Val( 2p)     1.19377      -0.13157
 294    C 15  py     Ryd( 3p)     0.00193       0.66949
 295    C 15  py     Ryd( 4p)     0.00024       1.51696
 296    C 15  pz     Val( 2p)     0.92574      -0.09547
 297    C 15  pz     Ryd( 3p)     0.00116       0.62980
 298    C 15  pz     Ryd( 4p)     0.00021       1.50375
 299    C 15  dxy    Ryd( 3d)     0.00069       1.93850
 300    C 15  dxy    Ryd( 4d)     0.00004       2.64629
 301    C 15  dxz    Ryd( 3d)     0.00060       2.26588
 302    C 15  dxz    Ryd( 4d)     0.00007       2.72807
 303    C 15  dyz    Ryd( 3d)     0.00130       2.04426
 304    C 15  dyz    Ryd( 4d)     0.00007       2.83791
 305    C 15  dx2y2  Ryd( 3d)     0.00152       1.98050
 306    C 15  dx2y2  Ryd( 4d)     0.00006       2.95427
 307    C 15  dz2    Ryd( 3d)     0.00081       2.68201
 308    C 15  dz2    Ryd( 4d)     0.00012       3.03567
 309    C 15  f(0)   Ryd( 4f)     0.00020       3.60544
 310    C 15  f(c1)  Ryd( 4f)     0.00021       3.62476
 311    C 15  f(s1)  Ryd( 4f)     0.00010       3.50288
 312    C 15  f(c2)  Ryd( 4f)     0.00007       3.39635
 313    C 15  f(s2)  Ryd( 4f)     0.00003       3.52755
 314    C 15  f(c3)  Ryd( 4f)     0.00021       3.46911
 315    C 15  f(s3)  Ryd( 4f)     0.00009       3.29135

 316    H 16  s      Val( 1s)     0.79568       0.00905
 317    H 16  s      Ryd( 2s)     0.00046       0.71218
 318    H 16  s      Ryd( 3s)     0.00004       1.88816
 319    H 16  px     Ryd( 2p)     0.00020       2.27050
 320    H 16  py     Ryd( 2p)     0.00032       2.39019
 321    H 16  pz     Ryd( 2p)     0.00040       2.59417

 322    H 17  s      Val( 1s)     0.80124       0.00483
 323    H 17  s      Ryd( 2s)     0.00098       0.69884
 324    H 17  s      Ryd( 3s)     0.00004       1.81208
 325    H 17  px     Ryd( 2p)     0.00090       2.72826
 326    H 17  py     Ryd( 2p)     0.00007       2.09463
 327    H 17  pz     Ryd( 2p)     0.00010       2.21018

 328    H 18  s      Val( 1s)     0.81909      -0.00185
 329    H 18  s      Ryd( 2s)     0.00272       0.53210
 330    H 18  s      Ryd( 3s)     0.00003       2.00427
 331    H 18  px     Ryd( 2p)     0.00009       2.12601
 332    H 18  py     Ryd( 2p)     0.00067       2.65917
 333    H 18  pz     Ryd( 2p)     0.00017       2.27941

 334    C 19  s      Cor( 1s)     1.99999     -10.20430
 335    C 19  s      Val( 2s)     1.04582      -0.21574
 336    C 19  s      Ryd( 3s)     0.00061       1.54960
 337    C 19  s      Ryd( 4s)     0.00002       2.57799
 338    C 19  s      Ryd( 5s)     0.00000      20.58261
 339    C 19  px     Val( 2p)     1.11572      -0.10515
 340    C 19  px     Ryd( 3p)     0.00285       0.92629
 341    C 19  px     Ryd( 4p)     0.00015       1.64403
 342    C 19  py     Val( 2p)     1.11696      -0.10631
 343    C 19  py     Ryd( 3p)     0.00172       0.87474
 344    C 19  py     Ryd( 4p)     0.00023       1.64879
 345    C 19  pz     Val( 2p)     1.10607      -0.10952
 346    C 19  pz     Ryd( 3p)     0.00090       0.72031
 347    C 19  pz     Ryd( 4p)     0.00020       1.54364
 348    C 19  dxy    Ryd( 3d)     0.00157       2.38457
 349    C 19  dxy    Ryd( 4d)     0.00010       3.77434
 350    C 19  dxz    Ryd( 3d)     0.00131       2.06853
 351    C 19  dxz    Ryd( 4d)     0.00012       3.60562
 352    C 19  dyz    Ryd( 3d)     0.00060       1.90370
 353    C 19  dyz    Ryd( 4d)     0.00015       3.16878
 354    C 19  dx2y2  Ryd( 3d)     0.00026       1.99702
 355    C 19  dx2y2  Ryd( 4d)     0.00024       3.10485
 356    C 19  dz2    Ryd( 3d)     0.00068       1.96899
 357    C 19  dz2    Ryd( 4d)     0.00015       3.23436
 358    C 19  f(0)   Ryd( 4f)     0.00002       3.48779
 359    C 19  f(c1)  Ryd( 4f)     0.00029       3.63383
 360    C 19  f(s1)  Ryd( 4f)     0.00001       3.43459
 361    C 19  f(c2)  Ryd( 4f)     0.00003       3.48405
 362    C 19  f(s2)  Ryd( 4f)     0.00035       3.70727
 363    C 19  f(c3)  Ryd( 4f)     0.00020       3.62659
 364    C 19  f(s3)  Ryd( 4f)     0.00005       3.52036

 365    H 20  s      Val( 1s)     0.79011       0.01114
 366    H 20  s      Ryd( 2s)     0.00147       0.66914
 367    H 20  s      Ryd( 3s)     0.00005       2.03657
 368    H 20  px     Ryd( 2p)     0.00038       2.52191
 369    H 20  py     Ryd( 2p)     0.00015       2.34898
 370    H 20  pz     Ryd( 2p)     0.00057       2.71605

 371    H 21  s      Val( 1s)     0.78060       0.01852
 372    H 21  s      Ryd( 2s)     0.00055       0.78934
 373    H 21  s      Ryd( 3s)     0.00003       1.84176
 374    H 21  px     Ryd( 2p)     0.00029       2.46774
 375    H 21  py     Ryd( 2p)     0.00055       2.69809
 376    H 21  pz     Ryd( 2p)     0.00019       2.39724

 377    C 22  s      Cor( 1s)     1.99999     -10.19532
 378    C 22  s      Val( 2s)     1.09423      -0.23817
 379    C 22  s      Ryd( 3s)     0.00131       1.08370
 380    C 22  s      Ryd( 4s)     0.00005       5.87009
 381    C 22  s      Ryd( 5s)     0.00002      16.83405
 382    C 22  px     Val( 2p)     1.10318      -0.10900
 383    C 22  px     Ryd( 3p)     0.00122       0.79141
 384    C 22  px     Ryd( 4p)     0.00011       1.48708
 385    C 22  py     Val( 2p)     1.14790      -0.12211
 386    C 22  py     Ryd( 3p)     0.00085       0.76470
 387    C 22  py     Ryd( 4p)     0.00029       1.60677
 388    C 22  pz     Val( 2p)     1.13117      -0.10581
 389    C 22  pz     Ryd( 3p)     0.00202       0.87423
 390    C 22  pz     Ryd( 4p)     0.00011       1.49193
 391    C 22  dxy    Ryd( 3d)     0.00169       1.92467
 392    C 22  dxy    Ryd( 4d)     0.00005       3.56227
 393    C 22  dxz    Ryd( 3d)     0.00121       2.04423
 394    C 22  dxz    Ryd( 4d)     0.00010       3.72742
 395    C 22  dyz    Ryd( 3d)     0.00058       1.78831
 396    C 22  dyz    Ryd( 4d)     0.00011       3.14830
 397    C 22  dx2y2  Ryd( 3d)     0.00034       1.66375
 398    C 22  dx2y2  Ryd( 4d)     0.00016       3.15296
 399    C 22  dz2    Ryd( 3d)     0.00142       1.79591
 400    C 22  dz2    Ryd( 4d)     0.00020       3.33418
 401    C 22  f(0)   Ryd( 4f)     0.00003       3.41917
 402    C 22  f(c1)  Ryd( 4f)     0.00054       3.70243
 403    C 22  f(s1)  Ryd( 4f)     0.00005       3.38059
 404    C 22  f(c2)  Ryd( 4f)     0.00008       3.44540
 405    C 22  f(s2)  Ryd( 4f)     0.00020       3.49906
 406    C 22  f(c3)  Ryd( 4f)     0.00013       3.55101
 407    C 22  f(s3)  Ryd( 4f)     0.00014       3.43297

 408    H 23  s      Val( 1s)     0.76961       0.00022
 409    H 23  s      Ryd( 2s)     0.00052       0.75204
 410    H 23  s      Ryd( 3s)     0.00003       1.84107
 411    H 23  px     Ryd( 2p)     0.00019       2.38334
 412    H 23  py     Ryd( 2p)     0.00078       2.76383
 413    H 23  pz     Ryd( 2p)     0.00012       2.29037

 414    H 24  s      Val( 1s)     0.77429       0.02086
 415    H 24  s      Ryd( 2s)     0.00156       0.55243
 416    H 24  s      Ryd( 3s)     0.00002       2.06628
 417    H 24  px     Ryd( 2p)     0.00027       2.50270
 418    H 24  py     Ryd( 2p)     0.00008       2.26952
 419    H 24  pz     Ryd( 2p)     0.00062       2.66744

 420    C 25  s      Cor( 1s)     1.99999     -10.26649
 421    C 25  s      Val( 2s)     0.95517      -0.18187
 422    C 25  s      Ryd( 3s)     0.01019       1.19062
 423    C 25  s      Ryd( 4s)     0.00009       1.83832
 424    C 25  s      Ryd( 5s)     0.00001      22.10631
 425    C 25  px     Val( 2p)     0.91663      -0.07428
 426    C 25  px     Ryd( 3p)     0.00242       1.04002
 427    C 25  px     Ryd( 4p)     0.00015       1.22281
 428    C 25  py     Val( 2p)     0.76443      -0.09465
 429    C 25  py     Ryd( 3p)     0.00239       0.99778
 430    C 25  py     Ryd( 4p)     0.00021       1.04906
 431    C 25  pz     Val( 2p)     0.88269      -0.01297
 432    C 25  pz     Ryd( 3p)     0.01056       1.17450
 433    C 25  pz     Ryd( 4p)     0.00027       1.18826
 434    C 25  dxy    Ryd( 3d)     0.00065       2.92140
 435    C 25  dxy    Ryd( 4d)     0.00016       2.29414
 436    C 25  dxz    Ryd( 3d)     0.00161       2.92929
 437    C 25  dxz    Ryd( 4d)     0.00035       2.36655
 438    C 25  dyz    Ryd( 3d)     0.00094       2.84437
 439    C 25  dyz    Ryd( 4d)     0.00029       2.20142
 440    C 25  dx2y2  Ryd( 3d)     0.00042       2.65027
 441    C 25  dx2y2  Ryd( 4d)     0.00004       2.07772
 442    C 25  dz2    Ryd( 3d)     0.00117       3.05782
 443    C 25  dz2    Ryd( 4d)     0.00054       2.41190
 444    C 25  f(0)   Ryd( 4f)     0.00016       3.53451
 445    C 25  f(c1)  Ryd( 4f)     0.00030       3.69048
 446    C 25  f(s1)  Ryd( 4f)     0.00016       3.43019
 447    C 25  f(c2)  Ryd( 4f)     0.00005       3.37653
 448    C 25  f(s2)  Ryd( 4f)     0.00012       3.41390
 449    C 25  f(c3)  Ryd( 4f)     0.00008       3.23701
 450    C 25  f(s3)  Ryd( 4f)     0.00018       3.24508

 451    H 26  s      Val( 1s)     0.90317      -0.03407
 452    H 26  s      Ryd( 2s)     0.00344       0.47640
 453    H 26  s      Ryd( 3s)     0.00015       2.21063
 454    H 26  px     Ryd( 2p)     0.00051       2.48070
 455    H 26  py     Ryd( 2p)     0.00016       2.17214
 456    H 26  pz     Ryd( 2p)     0.00060       2.60193

 457    O 27  s      Cor( 1s)     1.99999     -19.12514
 458    O 27  s      Val( 2s)     1.69896      -0.68322
 459    O 27  s      Ryd( 3s)     0.00049       1.62211
 460    O 27  s      Ryd( 4s)     0.00002       4.39030
 461    O 27  s      Ryd( 5s)     0.00000      41.87630
 462    O 27  px     Val( 2p)     1.71284      -0.26832
 463    O 27  px     Ryd( 3p)     0.00299       0.65397
 464    O 27  px     Ryd( 4p)     0.00004       3.13789
 465    O 27  py     Val( 2p)     1.48644      -0.26277
 466    O 27  py     Ryd( 3p)     0.00132       0.69030
 467    O 27  py     Ryd( 4p)     0.00002       3.12859
 468    O 27  pz     Val( 2p)     1.61133      -0.28580
 469    O 27  pz     Ryd( 3p)     0.00115       0.61507
 470    O 27  pz     Ryd( 4p)     0.00018       3.51612
 471    O 27  dxy    Ryd( 3d)     0.00071       1.65964
 472    O 27  dxy    Ryd( 4d)     0.00001       6.40377
 473    O 27  dxz    Ryd( 3d)     0.00470       1.90772
 474    O 27  dxz    Ryd( 4d)     0.00003       6.58595
 475    O 27  dyz    Ryd( 3d)     0.00527       1.90194
 476    O 27  dyz    Ryd( 4d)     0.00001       6.55562
 477    O 27  dx2y2  Ryd( 3d)     0.00077       1.64151
 478    O 27  dx2y2  Ryd( 4d)     0.00000       6.34364
 479    O 27  dz2    Ryd( 3d)     0.00761       2.14044
 480    O 27  dz2    Ryd( 4d)     0.00002       6.72618
 481    O 27  f(0)   Ryd( 4f)     0.00015       6.09104
 482    O 27  f(c1)  Ryd( 4f)     0.00013       5.88623
 483    O 27  f(s1)  Ryd( 4f)     0.00011       5.89909
 484    O 27  f(c2)  Ryd( 4f)     0.00007       5.54903
 485    O 27  f(s2)  Ryd( 4f)     0.00006       5.60389
 486    O 27  f(c3)  Ryd( 4f)     0.00000       5.22659
 487    O 27  f(s3)  Ryd( 4f)     0.00000       5.23520

 488    N 28  s      Cor( 1s)     1.99999     -14.55320
 489    N 28  s      Val( 2s)     1.12140      -0.47148
 490    N 28  s      Ryd( 3s)     0.00442       2.20501
 491    N 28  s      Ryd( 4s)     0.00021       1.90190
 492    N 28  s      Ryd( 5s)     0.00000      27.93616
 493    N 28  px     Val( 2p)     1.16952      -0.27152
 494    N 28  px     Ryd( 3p)     0.00691       1.19824
 495    N 28  px     Ryd( 4p)     0.00009       2.05534
 496    N 28  py     Val( 2p)     1.03043      -0.24293
 497    N 28  py     Ryd( 3p)     0.01099       1.34505
 498    N 28  py     Ryd( 4p)     0.00011       2.51699
 499    N 28  pz     Val( 2p)     1.13570      -0.30712
 500    N 28  pz     Ryd( 3p)     0.00293       1.00547
 501    N 28  pz     Ryd( 4p)     0.00017       1.83986
 502    N 28  dxy    Ryd( 3d)     0.00271       2.75210
 503    N 28  dxy    Ryd( 4d)     0.00023       5.26515
 504    N 28  dxz    Ryd( 3d)     0.00135       2.33193
 505    N 28  dxz    Ryd( 4d)     0.00005       4.41139
 506    N 28  dyz    Ryd( 3d)     0.00336       2.79649
 507    N 28  dyz    Ryd( 4d)     0.00009       4.55414
 508    N 28  dx2y2  Ryd( 3d)     0.00395       2.58461
 509    N 28  dx2y2  Ryd( 4d)     0.00011       4.94638
 510    N 28  dz2    Ryd( 3d)     0.00224       2.72762
 511    N 28  dz2    Ryd( 4d)     0.00008       4.49007
 512    N 28  f(0)   Ryd( 4f)     0.00024       4.52332
 513    N 28  f(c1)  Ryd( 4f)     0.00014       4.35573
 514    N 28  f(s1)  Ryd( 4f)     0.00031       4.53951
 515    N 28  f(c2)  Ryd( 4f)     0.00019       4.57948
 516    N 28  f(s2)  Ryd( 4f)     0.00028       4.71289
 517    N 28  f(c3)  Ryd( 4f)     0.00037       5.03218
 518    N 28  f(s3)  Ryd( 4f)     0.00027       4.94570

[...]
  235.  0.00012     1.93964  105.   RY (11) C  1
  236.  0.00011     2.41285  236.   RY (12) C  6
  237.  0.00012     2.06134  382.   RY ( 9) C 19
  238.  0.00011     2.27617  474.   RY ( 3) H 26
  239.  0.00011     2.78899  181.   RY ( 9) C  4
  240.  0.00011     2.12720  257.   RY ( 2) H  8
  241.  0.00011     2.40336  406.   RY ( 2) H 21
  242.  0.00011     1.54123  298.   RY ( 7) C 11
  243.  0.00011     2.37330  437.   RY ( 2) H 23
  244.  0.00010     1.60176  533.   RY ( 5) O 29
  245.  0.00010     3.26422  274.   RY ( 9) N 10
  246.  0.00010     2.15896  319.   RY ( 2) H 12
  247.  0.00010     2.08995  324.   RY ( 2) H 13
  248.  0.00010     1.60051  559.   RY ( 5) O 30
  249.  0.00009     1.41548  258.   RY ( 3) H  8
  250.  0.00009     2.47612  383.   RY (10) C 19
  251.  0.00009     1.89984  253.   RY ( 3) H  7
  252.  0.00009     1.86639  263.   RY ( 3) H  9
  253.  0.00009     3.05612  207.   RY ( 9) C  5
  254.  0.00009     2.08364  329.   RY ( 2) H 14
  255.  0.00009     2.17501  365.   RY ( 2) H 17
  256.  0.00009     2.27515  438.   RY ( 3) H 23
  257.  0.00009     5.05402  511.   RY ( 9) N 28
  258.  0.00009     3.21903  275.   RY (10) N 10
  259.  0.00009     2.18216  480.   RY ( 4) O 27
  260.  0.00008     2.29463  402.   RY ( 3) H 20
  261.  0.00008     2.88383  159.   RY (13) C  3
  262.  0.00008     1.57167  339.   RY ( 7) C 15
  263.  0.00008     3.50302  418.   RY ( 9) C 22
  264.  0.00008     2.35294  407.   RY ( 3) H 21
  265.  0.00008     2.93802  106.   RY (12) C  1
  266.  0.00008     2.53375  131.   RY (11) C  2
  267.  0.00008     2.20863  370.   RY ( 2) H 18
  268.  0.00008     2.34666  442.   RY ( 2) H 24
  269.  0.00008     1.23904  182.   RY (10) C  4
  270.  0.00007     2.13014  320.   RY ( 3) H 12
  271.  0.00007     2.89840  534.   RY ( 6) O 29
  272.  0.00007     2.19232  254.   RY ( 4) H  7
  273.  0.00007     2.16238  330.   RY ( 3) H 14
  274.  0.00007     2.10042  361.   RY ( 3) H 16
  275.  0.00007     2.47285  453.   RY ( 8) C 25
  276.  0.00007     2.90522  560.   RY ( 6) O 30
  277.  0.00006     2.55622  264.   RY ( 4) H  9
  278.  0.00006     2.62295  276.   RY (11) N 10
  279.  0.00006     2.11031  325.   RY ( 3) H 13
  280.  0.00006     2.09056  366.   RY ( 3) H 17
  281.  0.00006     2.60516  107.   RY (13) C  1
  282.  0.00006     2.52008  259.   RY ( 4) H  8
  283.  0.00006     3.04952  237.   RY (13) C  6
  284.  0.00006     1.55234  299.   RY ( 8) C 11
  285.  0.00006     2.61212  384.   RY (11) C 19
  286.  0.00005     2.70661  132.   RY (12) C  2
  287.  0.00005     2.60943  208.   RY (10) C  5
  288.  0.00005     2.08967  371.   RY ( 3) H 18
  289.  0.00005     2.08699  475.   RY ( 4) H 26
  290.  0.00005     2.28852  362.   RY ( 4) H 16
  291.  0.00005     2.06700  367.   RY ( 4) H 17
  292.  0.00005     2.37145  419.   RY (10) C 22
  293.  0.00005     2.33628  443.   RY ( 3) H 24
  294.  0.00005     2.33365  403.   RY ( 4) H 20
  295.  0.00005     2.27264  454.   RY ( 9) C 25
  296.  0.00005     2.90095  108.   RY (14) C  1
  297.  0.00005     2.32560  160.   RY (14) C  3
  298.  0.00005     1.66875  340.   RY ( 8) C 15
  299.  0.00004     2.06324  183.   RY (11) C  4
  300.  0.00004     2.54646  238.   RY (14) C  6
  301.  0.00004     2.16468  326.   RY ( 4) H 13
  302.  0.00004     3.18620  277.   RY (12) N 10
  303.  0.00004     2.17940  321.   RY ( 4) H 12
  304.  0.00004     2.23717  331.   RY ( 4) H 14
  305.  0.00004     3.80883  239.   RY (15) C  6
  306.  0.00004     2.27415  408.   RY ( 4) H 21
  307.  0.00003     2.36169  444.   RY ( 4) H 24
  308.  0.00003     2.62965  184.   RY (12) C  4
  309.  0.00003     2.20780  372.   RY ( 4) H 18
  310.  0.00003     2.12940  420.   RY (11) C 22
  311.  0.00003     2.28226  455.   RY (10) C 25
  312.  0.00003     1.99538  481.   RY ( 5) O 27
  313.  0.00003     1.80788  209.   RY (11) C  5
  314.  0.00003     1.69186  300.   RY ( 9) C 11
  315.  0.00003     2.48607  561.   RY ( 7) O 30
  316.  0.00003     3.49875  512.   RY (10) N 28
  317.  0.00003     3.26487  133.   RY (13) C  2
  318.  0.00003     3.74721  278.   RY (13) N 10
  319.  0.00003     1.92367  301.   RY (10) C 11
  320.  0.00003     2.31370  385.   RY (12) C 19
  321.  0.00003     3.00764  386.   RY (13) C 19
  322.  0.00003     2.29347  439.   RY ( 4) H 23
  323.  0.00003     2.47548  535.   RY ( 7) O 29
  324.  0.00002     3.01325  240.   RY (16) C  6
  325.  0.00002     2.89256  109.   RY (15) C  1
  326.  0.00002     2.82336  134.   RY (14) C  2
  327.  0.00002     2.14921  210.   RY (12) C  5
  328.  0.00002     4.05509  279.   RY (14) N 10
  329.  0.00002     3.29294  341.   RY ( 9) C 15
  330.  0.00002     0.98578  482.   RY ( 6) O 27
  331.  0.00002     2.28567  513.   RY (11) N 28
  332.  0.00002     2.49773  185.   RY (13) C  4
  333.  0.00002     2.43565  135.   RY (15) C  2
  334.  0.00002     2.62548  404.   RY ( 5) H 20
  335.  0.00002     4.08285  110.   RY (16) C  1
  336.  0.00002     2.12691  456.   RY (11) C 25
  337.  0.00002     2.49820  186.   RY (14) C  4
  338.  0.00002     3.55566  241.   RY (17) C  6
  339.  0.00002     2.60046  211.   RY (13) C  5
  340.  0.00002     2.89387  255.   RY ( 5) H  7
  341.  0.00002     3.09599  302.   RY (11) C 11
  342.  0.00002     1.59796  342.   RY (10) C 15
  343.  0.00002     2.58505  387.   RY (14) C 19
  344.  0.00002     2.34788  421.   RY (12) C 22
  345.  0.00001     2.99296  111.   RY (17) C  1
  346.  0.00001     2.70159  136.   RY (16) C  2
  347.  0.00001     3.84763  161.   RY (15) C  3
  348.  0.00001     2.14712  303.   RY (12) C 11
  349.  0.00001     2.87885  476.   RY ( 5) H 26
  350.  0.00001     4.26323  514.   RY (12) N 28
  351.  0.00001     3.07101  112.   RY (18) C  1
  352.  0.00001     4.33681  162.   RY (16) C  3
  353.  0.00001     2.91050  260.   RY ( 5) H  8
  354.  0.00001     2.78170  113.   RY (19) C  1
  355.  0.00001     2.89491  187.   RY (15) C  4
  356.  0.00001     3.66417  212.   RY (14) C  5
  357.  0.00001     2.89885  265.   RY ( 5) H  9
  358.  0.00001     2.26481  343.   RY (11) C 15
  359.  0.00001     1.89271  457.   RY (12) C 25
  360.  0.00001     3.00852  536.   RY ( 8) O 29
  361.  0.00001     2.06777  537.   RY ( 9) O 29
  362.  0.00001     3.23271  562.   RY ( 8) O 30
  363.  0.00001     3.59851  242.   RY (18) C  6
  364.  0.00001     3.94958  280.   RY (15) N 10
  365.  0.00001     2.94342  388.   RY (15) C 19
  366.  0.00001     1.56588  458.   RY (13) C 25
  367.  0.00001     2.02724  137.   RY (17) C  2
  368.  0.00001     2.88055  213.   RY (15) C  5
  369.  0.00001     4.53773  281.   RY (16) N 10
  370.  0.00001     2.63323  327.   RY ( 5) H 13
  371.  0.00001     2.54748  373.   RY ( 5) H 18
  372.  0.00001     3.17565  389.   RY (16) C 19
  373.  0.00000     2.81072  114.   RY (20) C  1
  374.  0.00000     3.41409  138.   RY (18) C  2
  375.  0.00001     3.69209  163.   RY (17) C  3
  376.  0.00001     3.30927  243.   RY (19) C  6
  377.  0.00001     3.60701  422.   RY (13) C 22
  378.  0.00001     2.46057  445.   RY ( 5) H 24
  379.  0.00001     2.15470  483.   RY ( 7) O 27
  380.  0.00001     4.01263  515.   RY (13) N 28
  381.  0.00001     3.91130  516.   RY (14) N 28
  382.  0.00001     1.95182  563.   RY ( 9) O 30
  383.  0.00000     3.82717  139.   RY (19) C  2
  384.  0.00000     2.38884  164.   RY (18) C  3
  385.  0.00000     3.72319  115.   RY (21) C  1
  386.  0.00000     4.23509  116.   RY (22) C  1
  387.  0.00000    14.10966  117.   RY (23) C  1
  388.  0.00000     7.26241  118.   RY (24) C  1
  389.  0.00000     3.29271  119.   RY (25) C  1
  390.  0.00000     3.46869  120.   RY (26) C  1
  391.  0.00000     8.34083  140.   RY (20) C  2
  392.  0.00000     5.15745  141.   RY (21) C  2
  393.  0.00000     7.72443  142.   RY (22) C  2
  394.  0.00000     3.49144  165.   RY (19) C  3
  395.  0.00000     2.98419  143.   RY (23) C  2
  396.  0.00000     3.42075  144.   RY (24) C  2
  397.  0.00000     3.23987  145.   RY (25) C  2
  398.  0.00000     3.47876  146.   RY (26) C  2
  399.  0.00000     3.21479  166.   RY (20) C  3
  400.  0.00000     3.30143  188.   RY (16) C  4
  401.  0.00000     2.85565  189.   RY (17) C  4
  402.  0.00000     3.29098  190.   RY (18) C  4
  403.  0.00000     3.41427  191.   RY (19) C  4
  404.  0.00000     4.01652  214.   RY (16) C  5
  405.  0.00000     3.32742  215.   RY (17) C  5
  406.  0.00000     3.68871  244.   RY (20) C  6
  407.  0.00000     5.76180  282.   RY (17) N 10
  408.  0.00000     4.46926  283.   RY (18) N 10
  409.  0.00000     2.15639  304.   RY (13) C 11
  410.  0.00000     2.36770  305.   RY (14) C 11
  411.  0.00000     3.00297  216.   RY (18) C  5
  412.  0.00000     3.14159  217.   RY (19) C  5
  413.  0.00000     3.39366  167.   RY (21) C  3
  414.  0.00000     3.32235  168.   RY (22) C  3
  415.  0.00000     3.20014  169.   RY (23) C  3
  416.  0.00000     3.28734  170.   RY (24) C  3
  417.  0.00000    19.99283  171.   RY (25) C  3
  418.  0.00000     3.69489  172.   RY (26) C  3
  419.  0.00000    14.34729  192.   RY (20) C  4
  420.  0.00000     3.52280  193.   RY (21) C  4
  421.  0.00000     3.15065  194.   RY (22) C  4
  422.  0.00000     5.27111  195.   RY (23) C  4
  423.  0.00000     3.12366  196.   RY (24) C  4
  424.  0.00000     3.18336  197.   RY (25) C  4
  425.  0.00000     3.54389  198.   RY (26) C  4
  426.  0.00000    12.86148  218.   RY (20) C  5
  427.  0.00000     3.39933  219.   RY (21) C  5
  428.  0.00000     3.39521  220.   RY (22) C  5
  429.  0.00000     3.73517  221.   RY (23) C  5
  430.  0.00000     6.99224  222.   RY (24) C  5
  431.  0.00000     3.78947  223.   RY (25) C  5
  432.  0.00000     3.39030  224.   RY (26) C  5
  433.  0.00000     3.47301  245.   RY (21) C  6
  434.  0.00000     2.81522  246.   RY (22) C  6
  435.  0.00000     2.60631  322.   RY ( 5) H 12
  436.  0.00000     2.71160  332.   RY ( 5) H 14
  437.  0.00000     2.19133  344.   RY (12) C 15
  438.  0.00001     2.52168  368.   RY ( 5) H 17
  439.  0.00000     1.85338  345.   RY (13) C 15
  440.  0.00000     4.60050  247.   RY (23) C  6
  441.  0.00000    17.28134  248.   RY (24) C  6
  442.  0.00000     3.77631  249.   RY (25) C  6
  443.  0.00000     4.27301  250.   RY (26) C  6
  444.  0.00000    18.07137  284.   RY (19) N 10
  445.  0.00000     4.67740  285.   RY (20) N 10
  446.  0.00000     5.06547  286.   RY (21) N 10
  447.  0.00000     4.26053  287.   RY (22) N 10
  448.  0.00000     4.70851  288.   RY (23) N 10
  449.  0.00000     2.08775  306.   RY (15) C 11
  450.  0.00000     6.03920  289.   RY (24) N 10
  451.  0.00000     9.38768  290.   RY (25) N 10
  452.  0.00000     4.65336  291.   RY (26) N 10
  453.  0.00000     3.27668  307.   RY (16) C 11
  454.  0.00000     3.23732  308.   RY (17) C 11
  455.  0.00000     2.99312  309.   RY (18) C 11
  456.  0.00000    16.84504  310.   RY (19) C 11
  457.  0.00000     3.88036  311.   RY (20) C 11
  458.  0.00000     3.89867  312.   RY (21) C 11
  459.  0.00000     3.51982  313.   RY (22) C 11
  460.  0.00000     3.17430  314.   RY (23) C 11
  461.  0.00000     2.71143  346.   RY (14) C 15
  462.  0.00000     3.06901  347.   RY (15) C 15
  463.  0.00000     2.50735  363.   RY ( 5) H 16
  464.  0.00000     2.47855  390.   RY (17) C 19
  465.  0.00001     2.37267  409.   RY ( 5) H 21
  466.  0.00001     2.51275  423.   RY (14) C 22
  467.  0.00001     2.32211  440.   RY ( 5) H 23
  468.  0.00001     2.92820  484.   RY ( 8) O 27
  469.  0.00001     3.08575  459.   RY (14) C 25
  470.  0.00001     2.72251  517.   RY (15) N 28
  471.  0.00000     2.79061  391.   RY (18) C 19
  472.  0.00000     5.59024  315.   RY (24) C 11
  473.  0.00000     3.28380  316.   RY (25) C 11
  474.  0.00000     2.17724  348.   RY (16) C 15
  475.  0.00000     5.07091  317.   RY (26) C 11
  476.  0.00000     7.71622  349.   RY (17) C 15
  477.  0.00000    15.90395  350.   RY (18) C 15
  478.  0.00000     3.67042  351.   RY (19) C 15
  479.  0.00000     3.74164  352.   RY (20) C 15
  480.  0.00000     3.35667  353.   RY (21) C 15
  481.  0.00000     3.05522  354.   RY (22) C 15
  482.  0.00000     3.00716  355.   RY (23) C 15
  483.  0.00000     2.89123  392.   RY (19) C 19
  484.  0.00000     2.92332  424.   RY (15) C 22
  485.  0.00000     2.59269  460.   RY (15) C 25
  486.  0.00000     2.76937  485.   RY ( 9) O 27
  487.  0.00000     3.50699  393.   RY (20) C 19
  488.  0.00000     3.07158  425.   RY (16) C 22
  489.  0.00000     2.45387  461.   RY (16) C 25
  490.  0.00000     4.45588  426.   RY (17) C 22
  491.  0.00000     3.12277  356.   RY (24) C 15
  492.  0.00000     3.47718  357.   RY (25) C 15
  493.  0.00000     3.34297  358.   RY (26) C 15
  494.  0.00000    19.25859  394.   RY (21) C 19
  495.  0.00000     3.40371  395.   RY (22) C 19
  496.  0.00000     3.18507  396.   RY (23) C 19
  497.  0.00000     3.65128  397.   RY (24) C 19
  498.  0.00000     4.36072  398.   RY (25) C 19
  499.  0.00000     3.65793  399.   RY (26) C 19
  500.  0.00000     8.62301  427.   RY (18) C 22
  501.  0.00000     3.57800  428.   RY (19) C 22
  502.  0.00000     3.55585  429.   RY (20) C 22
  503.  0.00000     6.79153  430.   RY (21) C 22
  504.  0.00000     3.25790  431.   RY (22) C 22
  505.  0.00000     4.67990  432.   RY (23) C 22
  506.  0.00000     3.36120  433.   RY (24) C 22
  507.  0.00000     3.83355  434.   RY (25) C 22
  508.  0.00000     3.13738  435.   RY (26) C 22
  509.  0.00000     2.74530  462.   RY (17) C 25
  510.  0.00000     3.38601  463.   RY (18) C 25
  511.  0.00000     2.61098  464.   RY (19) C 25
  512.  0.00000     3.50362  486.   RY (10) O 27
  513.  0.00000     2.53951  518.   RY (16) N 28
  514.  0.00000     5.08626  538.   RY (10) O 29
  515.  0.00000     4.63510  564.   RY (10) O 30
  516.  0.00000     6.95914  465.   RY (20) C 25
  517.  0.00000    11.88112  466.   RY (21) C 25
  518.  0.00000     2.80048  467.   RY (22) C 25
  519.  0.00000     7.23464  468.   RY (23) C 25
  520.  0.00000     3.82414  469.   RY (24) C 25
  521.  0.00000     3.26307  470.   RY (25) C 25
  522.  0.00000     3.65739  471.   RY (26) C 25
  523.  0.00000     3.73991  487.   RY (11) O 27
  524.  0.00000     4.04542  488.   RY (12) O 27
  525.  0.00000     2.68338  489.   RY (13) O 27
  526.  0.00000     6.05513  490.   RY (14) O 27
  527.  0.00000     6.87240  491.   RY (15) O 27
  528.  0.00000     9.11118  492.   RY (16) O 27
  529.  0.00000    12.79380  493.   RY (17) O 27
  530.  0.00000     6.33558  494.   RY (18) O 27
  531.  0.00000    12.42583  495.   RY (19) O 27
  532.  0.00000     7.56104  496.   RY (20) O 27
  533.  0.00000     6.18595  497.   RY (21) O 27
  534.  0.00000    13.94457  498.   RY (22) O 27
  535.  0.00000     9.00965  499.   RY (23) O 27
  536.  0.00000     7.20255  500.   RY (24) O 27
  537.  0.00000     6.04143  501.   RY (25) O 27
  538.  0.00000     7.25308  502.   RY (26) O 27
  539.  0.00000     5.43120  519.   RY (17) N 28
  540.  0.00000     3.63277  520.   RY (18) N 28
  541.  0.00000     4.38414  521.   RY (19) N 28
  542.  0.00000    19.31457  522.   RY (20) N 28
  543.  0.00000     4.45101  523.   RY (21) N 28
  544.  0.00000     2.65445  539.   RY (11) O 29
  545.  0.00000     3.11060  540.   RY (12) O 29
  546.  0.00000     3.47740  565.   RY (11) O 30
  547.  0.00000     2.76027  566.   RY (12) O 30
  548.  0.00000     4.95592  524.   RY (22) N 28
  549.  0.00000     9.51663  525.   RY (23) N 28
  550.  0.00000     4.39384  526.   RY (24) N 28
  551.  0.00000     6.67189  527.   RY (25) N 28
  552.  0.00000     4.88986  528.   RY (26) N 28
  553.  0.00000    11.77494  541.   RY (13) O 29
  554.  0.00000     6.16664  542.   RY (14) O 29
  555.  0.00000     5.77524  543.   RY (15) O 29
  556.  0.00000     6.50368  544.   RY (16) O 29
  557.  0.00000     5.42109  545.   RY (17) O 29
  558.  0.00000     2.80569  546.   RY (18) O 29
  559.  0.00000     7.75932  547.   RY (19) O 29
  560.  0.00000     8.65939  548.   RY (20) O 29
  561.  0.00000    10.45157  549.   RY (21) O 29
  562.  0.00000     6.29592  550.   RY (22) O 29
  563.  0.00000     5.44889  551.   RY (23) O 29
  564.  0.00000     5.92386  552.   RY (24) O 29
  565.  0.00000     6.76703  553.   RY (25) O 29
  566.  0.00000    22.14625  554.   RY (26) O 29
  567.  0.00000     6.35900  567.   RY (13) O 30
  568.  0.00000    22.55991  568.   RY (14) O 30
  569.  0.00000     6.30074  569.   RY (15) O 30
  570.  0.00000     8.28271  570.   RY (16) O 30
  571.  0.00000     6.43189  571.   RY (17) O 30
  572.  0.00000     3.14408  572.   RY (18) O 30
  573.  0.00000    13.10603  573.   RY (19) O 30
  574.  0.00000    10.59568  574.   RY (20) O 30
  575.  0.00000     5.68262  575.   RY (21) O 30
  576.  0.00000     5.65847  576.   RY (22) O 30
  577.  0.00000     5.74105  577.   RY (23) O 30
  578.  0.00000     5.42429  578.   RY (24) O 30
  579.  0.00000     5.83953  579.   RY (25) O 30
  580.  0.00000     6.67451  580.   RY (26) O 30

 Maximum scratch memory used by NBO was 2960212 words
 Maximum scratch memory used by G09NBO was 2193562 words

 Read Unf file /home/aloke/aloke/prakash/Gau-43910.EUF:
 Label Gaussian matrix elements                                         IVers= 1 NLab= 2 Version=AM64L-G09RevD.01
 Title Energy Optimisation and Frequency calculation                   
 NAtoms=    30 NBasis=   580 NBsUse=   580 ICharg=     0 Multip=     1 NE=   118 Len12L=8 Len4L=8
 Label GAUSSIAN SCALARS                                                 NI= 1 NR= 1 NTot=       1 LenBuf=    2000 N=    1000       1       1       1       1
 Label ALPHA ORBITAL ENERGIES                                           NI= 0 NR= 1 NTot=     580 LenBuf=    4000 N=     580       0       0       0       0
 Label ALPHA MO COEFFICIENTS                                            NI= 0 NR= 1 NTot=  336400 LenBuf=    4000 N=     580     580       0       0       0
 Store file  524 Len=  336400.
 Label NPA CHARGES                                                      NI= 0 NR= 1 NTot=      30 LenBuf=    4000 N=      30       0       0       0       0
 Recovered energy= -762.991093594     dipole=      0.000000000000      0.000000000000      0.000000000000
 1\1\GINC-CN160\SP\RB3LYP\def2TZVP\C11H14N2O3\ALOKE\14-Jul-2021\0\\# b
 3lyp/def2tzvp empiricaldispersion=gd3 pop=nbo6read pop=saveNBOs int=(g
 rid=ultrafine) scf=(tight,maxcycle=300)\\Energy Optimisation and Frequ
 ency calculation\\0,1\C,0,0.031337,-0.557157,0.567037\C,0,-1.322368,-0
 .839469,0.449494\C,0,-2.203521,0.119239,-0.034116\C,0,-1.761678,1.3721
 98,-0.427565\C,0,-0.415583,1.669224,-0.297465\C,0,0.487805,0.732823,0.
 217495\H,0,-1.704325,-1.818345,0.701713\H,0,-2.465401,2.096028,-0.8101
 6\H,0,-0.064786,2.649628,-0.586216\N,0,1.862122,1.027194,0.358362\C,0,
 2.446824,1.959059,-0.593402\H,0,2.192109,3.007961,-0.386009\H,0,3.5320
 29,1.859071,-0.553072\H,0,2.129676,1.701787,-1.602054\C,0,2.320151,1.2
 63469,1.725156\H,0,1.842504,0.574883,2.417941\H,0,3.40105,1.119722,1.7
 80588\H,0,2.089105,2.286109,2.056066\C,0,0.986793,-1.668791,0.93247\H,
 0,1.656581,-1.383613,1.745981\H,0,0.405358,-2.514065,1.30166\C,0,1.833
 864,-2.141285,-0.268224\H,0,2.255887,-3.123813,-0.022233\H,0,1.224689,
 -2.258229,-1.165382\C,0,3.019052,-1.264144,-0.589817\H,0,3.659022,-1.0
 21273,0.285528\O,0,3.331192,-0.913739,-1.699782\N,0,-3.630696,-0.21202
 ,-0.150221\O,0,-4.37679,0.637101,-0.616703\O,0,-3.993094,-1.317495,0.2
 28022\\Version=AM64L-G09RevD.01\State=1-A\HF=-762.9910936\RMSD=6.807e-
 09\Dipole=1.770853,0.4604236,1.1893514\Quadrupole=-14.8546122,11.70035
 68,3.1542554,-0.6780067,6.6096329,-2.219574\PG=C01 [X(C11H14N2O3)]\\@


 A HARD FALL SHOULD MEAN A HIGH BOUNCE 
 IF ONE IS MADE OF THE RIGHT MATERIAL.

                -- THE CHEMIST ANALYST, MARCH 1950
 Job cpu time:       0 days  1 hours 10 minutes 13.0 seconds.
 File lengths (MBytes):  RWF=    131 Int=      0 D2E=      0 Chk=     13 Scr=      1
 Normal termination of Gaussian 09 at Wed Jul 14 10:04:30 2021.
