 Entering Gaussian System, Link 0=g09
 Initial command:
 /home/apps/iiser/g09/g09/l1.exe "/home/aloke/aloke/prakash/Gau-46386.inp" -scrdir="/home/aloke/aloke/prakash/"
 Entering Link 1 = /home/apps/iiser/g09/g09/l1.exe PID=     46402.
  
 Copyright (c) 1988,1990,1992,1993,1995,1998,2003,2009,2013,
            Gaussian, Inc.  All Rights Reserved.
  
 This is part of the Gaussian(R) 09 program.  It is based on
 the Gaussian(R) 03 system (copyright 2003, Gaussian, Inc.),
 the Gaussian(R) 98 system (copyright 1998, Gaussian, Inc.),
 the Gaussian(R) 94 system (copyright 1995, Gaussian, Inc.),
 the Gaussian 92(TM) system (copyright 1992, Gaussian, Inc.),
 the Gaussian 90(TM) system (copyright 1990, Gaussian, Inc.),
 the Gaussian 88(TM) system (copyright 1988, Gaussian, Inc.),
 the Gaussian 86(TM) system (copyright 1986, Carnegie Mellon
 University), and the Gaussian 82(TM) system (copyright 1983,
 Carnegie Mellon University). Gaussian is a federally registered
 trademark of Gaussian, Inc.
  
 This software contains proprietary and confidential information,
 including trade secrets, belonging to Gaussian, Inc.
  
 This software is provided under written license and may be
 used, copied, transmitted, or stored only in accord with that
 written license.
  
 The following legend is applicable only to US Government
 contracts under FAR:
  
                    RESTRICTED RIGHTS LEGEND
  
 Use, reproduction and disclosure by the US Government is
 subject to restrictions as set forth in subparagraphs (a)
 and (c) of the Commercial Computer Software - Restricted
 Rights clause in FAR 52.227-19.
  
 Gaussian, Inc.
 340 Quinnipiac St., Bldg. 40, Wallingford CT 06492
  
  
 ---------------------------------------------------------------
 Warning -- This program may not be used in any manner that
 competes with the business of Gaussian, Inc. or will provide
 assistance to any competitor of Gaussian, Inc.  The licensee
 of this program is prohibited from giving any competitor of
 Gaussian, Inc. access to this program.  By using this program,
 the user acknowledges that Gaussian, Inc. is engaged in the
 business of creating and licensing software in the field of
 computational chemistry and represents and warrants to the
 licensee that it is not a competitor of Gaussian, Inc. and that
 it will not use this program in any manner prohibited above.
 ---------------------------------------------------------------
  

 Cite this work as:
 Gaussian 09, Revision D.01,
 M. J. Frisch, G. W. Trucks, H. B. Schlegel, G. E. Scuseria, 
 M. A. Robb, J. R. Cheeseman, G. Scalmani, V. Barone, B. Mennucci, 
 G. A. Petersson, H. Nakatsuji, M. Caricato, X. Li, H. P. Hratchian, 
 A. F. Izmaylov, J. Bloino, G. Zheng, J. L. Sonnenberg, M. Hada, 
 M. Ehara, K. Toyota, R. Fukuda, J. Hasegawa, M. Ishida, T. Nakajima, 
 Y. Honda, O. Kitao, H. Nakai, T. Vreven, J. A. Montgomery, Jr., 
 J. E. Peralta, F. Ogliaro, M. Bearpark, J. J. Heyd, E. Brothers, 
 K. N. Kudin, V. N. Staroverov, T. Keith, R. Kobayashi, J. Normand, 
 K. Raghavachari, A. Rendell, J. C. Burant, S. S. Iyengar, J. Tomasi, 
 M. Cossi, N. Rega, J. M. Millam, M. Klene, J. E. Knox, J. B. Cross, 
 V. Bakken, C. Adamo, J. Jaramillo, R. Gomperts, R. E. Stratmann, 
 O. Yazyev, A. J. Austin, R. Cammi, C. Pomelli, J. W. Ochterski, 
 R. L. Martin, K. Morokuma, V. G. Zakrzewski, G. A. Voth, 
 P. Salvador, J. J. Dannenberg, S. Dapprich, A. D. Daniels, 
 O. Farkas, J. B. Foresman, J. V. Ortiz, J. Cioslowski, 
 and D. J. Fox, Gaussian, Inc., Wallingford CT, 2013.
 
 ******************************************
 Gaussian 09:  AM64L-G09RevD.01 24-Apr-2013
                14-Jul-2021 
 ******************************************
 %LindaWorkers=cn159
 %chk=nitro_mod_bp25_n.chk
 %mem=128GB
 %nprocshared=48
 Will use up to   48 processors via shared memory.
 SetLPE:  input flags=" -opt "Tsnet.Node.lindarsharg: ssh" "
 SetLPE:    new flags=" -opt "Tsnet.Node.lindarsharg: ssh"  -nodelist 'cn159'"
 Will use up to    1 processors via Linda.
 ----------------------------------------------------------------------
 # b3lyp/def2tzvp empiricaldispersion=gd3 pop=nbo6read pop=saveNBOs int
 =(grid=ultrafine) scf=(tight,maxcycle=300)
 ----------------------------------------------------------------------
 1/38=1,163=2/1;
 2/12=2,17=6,18=5,40=1/2;
 3/5=44,7=101,11=2,16=1,25=1,30=1,74=-5,75=-5,124=31/1,2,3;
 4//1;
 5/5=2,7=300,32=2,38=5/2;
 6/7=2,8=2,9=2,10=2,28=1,40=2,73=1,113=1,114=1,124=2103/1,12;
 99/5=1,9=1/99;
 ---------------------------------------------
 Energy Optimisation and Frequency calculation
 ---------------------------------------------
 Symbolic Z-matrix:
 Charge =  0 Multiplicity = 1
 C                     0.17474  -0.26718   0.31218 
 C                    -1.07481  -0.86982   0.3116 
 C                    -2.21966  -0.13713   0.02213 
 C                    -2.14928   1.21143  -0.28414 
 C                    -0.91037   1.82941  -0.26791 
 C                     0.25831   1.12219   0.04474 
 H                    -1.17018  -1.92842   0.50672 
 H                    -3.05042   1.76101  -0.51101 
 H                    -0.85629   2.88659  -0.48348 
 N                     1.5184    1.75684   0.05063 
 C                     1.67456   2.94343  -0.77493 
 H                     1.20207   3.84036  -0.3468 
 H                     2.74002   3.15378  -0.88226 
 H                     1.2585    2.76912  -1.76652 
 C                     2.14934   1.92547   1.36034 
 H                     1.77056   2.82372   1.86926 
 H                     3.22986   2.02493   1.24254 
 H                     1.94914   1.07393   2.0033 
 C                     1.40124  -1.13352   0.47173 
 H                     1.10596  -2.11092   0.85503 
 H                     2.10415  -0.73392   1.19926 
 C                     2.14057  -1.3199   -0.85593 
 H                     2.39529  -0.34765  -1.29423 
 H                     1.50947  -1.82046  -1.59944 
 C                     3.42235  -2.09692  -0.73496 
 H                     3.93226  -2.30548  -1.70038 
 O                     3.90306  -2.47351   0.30301 
 N                    -3.52391  -0.81088   0.02182 
 O                    -4.50859  -0.1481   -0.27505 
 O                    -3.55495  -1.99753   0.31852 
 
                          Input orientation:                          
 ---------------------------------------------------------------------
 Center     Atomic      Atomic             Coordinates (Angstroms)
 Number     Number       Type             X           Y           Z
 ---------------------------------------------------------------------
      1          6           0        0.174743   -0.267179    0.312175
      2          6           0       -1.074811   -0.869824    0.311599
      3          6           0       -2.219664   -0.137126    0.022125
      4          6           0       -2.149277    1.211427   -0.284139
      5          6           0       -0.910374    1.829409   -0.267913
      6          6           0        0.258311    1.122193    0.044742
      7          1           0       -1.170176   -1.928418    0.506718
      8          1           0       -3.050416    1.761013   -0.511013
      9          1           0       -0.856293    2.886593   -0.483483
     10          7           0        1.518400    1.756840    0.050632
     11          6           0        1.674560    2.943430   -0.774928
     12          1           0        1.202067    3.840360   -0.346796
     13          1           0        2.740020    3.153780   -0.882264
     14          1           0        1.258500    2.769119   -1.766524
     15          6           0        2.149342    1.925471    1.360335
     16          1           0        1.770558    2.823721    1.869264
     17          1           0        3.229860    2.024930    1.242543
     18          1           0        1.949143    1.073931    2.003303
     19          6           0        1.401235   -1.133516    0.471725
     20          1           0        1.105961   -2.110923    0.855029
     21          1           0        2.104153   -0.733922    1.199256
     22          6           0        2.140571   -1.319901   -0.855934
     23          1           0        2.395290   -0.347645   -1.294233
     24          1           0        1.509468   -1.820458   -1.599444
     25          6           0        3.422353   -2.096915   -0.734955
     26          1           0        3.932263   -2.305484   -1.700378
     27          8           0        3.903060   -2.473508    0.303012
     28          7           0       -3.523906   -0.810882    0.021822
     29          8           0       -4.508586   -0.148103   -0.275049
     30          8           0       -3.554949   -1.997529    0.318518
 ---------------------------------------------------------------------
                    Distance matrix (angstroms):
                    1          2          3          4          5
     1  C    0.000000
     2  C    1.387287   0.000000
     3  C    2.415415   1.389723   0.000000
     4  C    2.818321   2.416813   1.384683   0.000000
     5  C    2.430980   2.765634   2.380257   1.384574   0.000000
     6  C    1.417342   2.411754   2.779704   2.431585   1.401332
     7  H    2.146245   1.080642   2.131896   3.382709   3.845623
     8  H    3.897801   3.391314   2.139466   1.079615   2.154891
     9  H    3.412094   3.845852   3.355189   2.125494   1.080293
    10  N    2.443455   3.700299   4.190590   3.723090   2.450649
    11  C    3.706650   4.824986   5.028926   4.226398   2.860068
    12  H    4.285034   5.272902   5.259728   4.259897   2.917628
    13  H    4.439627   5.671652   6.020502   5.294876   3.931509
    14  H    3.835965   4.796336   4.872694   4.029493   2.798733
    15  C    3.131357   4.394165   5.013315   4.657497   3.467316
    16  H    3.811143   4.915762   5.300982   4.754129   3.569815
    17  H    3.931042   5.270337   5.988424   5.650457   4.411490
    18  H    2.794098   3.972952   4.771863   4.695566   3.729076
    19  C    1.510059   2.495191   3.782307   4.321600   3.830082
    20  H    2.135708   2.567374   3.955930   4.788767   4.566489
    21  H    2.174255   3.303364   4.520752   4.906782   4.220263
    22  C    2.517376   3.450273   4.602347   5.013718   4.424047
    23  H    2.741870   3.859141   4.803636   4.909591   4.089048
    24  H    2.801509   3.351759   4.401081   4.930392   4.577132
    25  C    3.871871   4.777605   6.020490   6.495492   5.865720
    26  H    4.724829   5.583902   6.746480   7.166556   6.526900
    27  O    4.332242   5.229826   6.559369   7.110153   6.481527
    28  N    3.749656   2.466883   1.467990   2.464336   3.726343
    29  O    4.721502   3.557506   2.308159   2.723003   4.105817
    30  O    4.111539   2.724491   2.309098   3.554787   4.688617
                    6          7          8          9         10
     6  C    0.000000
     7  H    3.400033   0.000000
     8  H    3.415352   4.264151   0.000000
     9  H    2.152782   4.925784   2.466144   0.000000
    10  N    1.410899   4.584494   4.603210   2.683428   0.000000
    11  C    2.448372   5.785330   4.877823   2.548213   1.453936
    12  H    2.903861   6.295619   4.736482   2.272708   2.144545
    13  H    3.338497   6.561070   5.967141   3.628206   2.077039
    14  H    2.644509   5.756123   4.599929   2.476357   2.096262
    15  C    2.439680   5.157550   5.528695   3.654759   1.463505
    16  H    2.917357   5.752154   5.480589   3.526998   2.123497
    17  H    3.328628   5.960765   6.525832   4.518659   2.102765
    18  H    2.587896   4.580831   5.638214   4.164171   2.113014
    19  C    2.564530   2.691700   5.400117   4.708517   2.923218
    20  H    3.439203   2.309855   5.842382   5.533283   3.971996
    21  H    2.860979   3.553542   5.976563   4.970310   2.804699
    22  C    3.212156   3.631551   6.046267   5.178272   3.267307
    23  H    2.918897   4.295907   5.891993   4.657296   2.646971
    24  H    3.595544   3.409995   5.899505   5.385028   3.939529
    25  C    4.580584   4.760406   7.538600   6.573082   4.369624
    26  H    5.319054   5.572103   8.167545   7.167201   5.039370
    27  O    5.126399   5.106500   8.181970   7.211151   4.862730
    28  N    4.247643   2.650294   2.668848   4.587245   5.658522
    29  O    4.943604   3.863374   2.413848   4.753111   6.329252
    30  O    4.934427   2.393186   3.881921   5.637428   6.317113
                   11         12         13         14         15
    11  C    0.000000
    12  H    1.100468   0.000000
    13  H    1.091317   1.767319   0.000000
    14  H    1.089382   1.779430   1.767705   0.000000
    15  C    2.412676   2.734671   2.624289   3.358956   0.000000
    16  H    2.648641   2.503529   2.935933   3.672076   1.099700
    17  H    2.707912   3.151782   2.455412   3.673494   1.091461
    18  H    3.359909   3.705970   3.643865   4.190733   1.085637
    19  C    4.272042   5.044709   4.691113   4.501188   3.272108
    20  H    5.341025   6.072182   5.779743   5.541716   4.199578
    21  H    4.195816   4.912035   4.455477   4.667149   2.664650
    22  C    4.289489   5.269564   4.513741   4.281041   3.929932
    23  H    3.408857   4.456546   3.542391   3.351055   3.503467
    24  H    4.837531   5.805901   5.174133   4.599469   4.816816
    25  C    5.334928   6.350714   5.296893   5.424452   4.710667
    26  H    5.788331   6.859851   5.647505   5.736286   5.517948
    27  O    5.955786   6.898010   5.867189   6.225899   4.852265
    28  N    6.461712   6.641141   7.468111   6.235864   6.439331
    29  O    6.930999   6.965956   7.988331   6.632794   7.162555
    30  O    7.277119   7.559947   8.222195   7.087850   7.001018
                   16         17         18         19         20
    16  H    0.000000
    17  H    1.777754   0.000000
    18  H    1.763980   1.767312   0.000000
    19  C    4.212985   3.730122   2.742035   0.000000
    20  H    5.081444   4.665447   3.488952   1.090611   0.000000
    21  H    3.635522   2.979992   1.984654   1.087690   1.735227
    22  C    4.973250   4.096102   3.733941   1.531024   2.150239
    23  H    4.522783   3.572233   3.618518   2.173556   3.064449
    24  H    5.802457   5.081697   4.642261   2.184799   2.504321
    25  C    5.807154   4.575714   4.441021   2.543449   2.809612
    26  H    6.612417   5.282674   5.391703   3.535201   3.815225
    27  O    5.921262   4.644552   4.392392   2.843092   2.874013
    28  N    6.682419   7.425991   6.118256   4.956160   4.880575
    29  O    7.270314   8.179774   6.956042   6.037772   6.054162
    30  O    7.349169   7.941513   6.524369   5.033264   4.693057
                   21         22         23         24         25
    21  H    0.000000
    22  C    2.137406   0.000000
    23  H    2.539972   1.096481   0.000000
    24  H    3.060544   1.096200   1.745569   0.000000
    25  C    2.708611   1.503779   2.104185   2.117286   0.000000
    26  H    3.770898   2.212379   2.521978   2.472928   1.111553
    27  O    2.658097   2.404232   3.056772   3.126515   1.204274
    28  N    5.750419   5.754638   6.081404   5.383549   7.104724
    29  O    6.800373   6.776565   6.981551   6.384964   8.179803
    30  O    5.864967   5.854696   6.381883   5.418326   7.057083
                   26         27         28         29         30
    26  H    0.000000
    27  O    2.010636   0.000000
    28  N    7.797068   7.615984   0.000000
    29  O    8.828012   8.746282   1.223521   0.000000
    30  O    7.760742   7.473198   1.223570   2.163821   0.000000
 Stoichiometry    C11H14N2O3
 Framework group  C1[X(C11H14N2O3)]
 Deg. of freedom    84
 Full point group                 C1      NOp   1
 Largest Abelian subgroup         C1      NOp   1
 Largest concise Abelian subgroup C1      NOp   1
                         Standard orientation:                         
 ---------------------------------------------------------------------
 Center     Atomic      Atomic             Coordinates (Angstroms)
 Number     Number       Type             X           Y           Z
 ---------------------------------------------------------------------
      1          6           0        0.174743   -0.267179    0.312175
      2          6           0       -1.074811   -0.869824    0.311599
      3          6           0       -2.219664   -0.137126    0.022125
      4          6           0       -2.149277    1.211427   -0.284139
      5          6           0       -0.910374    1.829409   -0.267913
      6          6           0        0.258311    1.122193    0.044742
      7          1           0       -1.170176   -1.928418    0.506718
      8          1           0       -3.050416    1.761013   -0.511013
      9          1           0       -0.856293    2.886593   -0.483483
     10          7           0        1.518400    1.756840    0.050632
     11          6           0        1.674560    2.943430   -0.774928
     12          1           0        1.202067    3.840360   -0.346796
     13          1           0        2.740020    3.153780   -0.882264
     14          1           0        1.258500    2.769119   -1.766524
     15          6           0        2.149342    1.925471    1.360335
     16          1           0        1.770558    2.823721    1.869264
     17          1           0        3.229860    2.024930    1.242543
     18          1           0        1.949143    1.073931    2.003303
     19          6           0        1.401235   -1.133516    0.471725
     20          1           0        1.105961   -2.110923    0.855029
     21          1           0        2.104153   -0.733922    1.199256
     22          6           0        2.140571   -1.319901   -0.855934
     23          1           0        2.395290   -0.347645   -1.294233
     24          1           0        1.509468   -1.820458   -1.599444
     25          6           0        3.422353   -2.096915   -0.734955
     26          1           0        3.932263   -2.305484   -1.700378
     27          8           0        3.903060   -2.473508    0.303012
     28          7           0       -3.523906   -0.810882    0.021822
     29          8           0       -4.508586   -0.148103   -0.275049
     30          8           0       -3.554949   -1.997529    0.318518
 ---------------------------------------------------------------------
 Rotational constants (GHZ):      0.7338475      0.3215663      0.2404355
 Standard basis: def2TZVP (5D, 7F)
 There are   660 symmetry adapted cartesian basis functions of A   symmetry.
 There are   580 symmetry adapted basis functions of A   symmetry.
   580 basis functions,   928 primitive gaussians,   660 cartesian basis functions
    59 alpha electrons       59 beta electrons
       nuclear repulsion energy      1086.4566367909 Hartrees.
 NAtoms=   30 NActive=   30 NUniq=   30 SFac= 1.00D+00 NAtFMM=   60 NAOKFM=F Big=F
 Integral buffers will be    131072 words long.
 Raffenetti 2 integral format.
 Two-electron integral symmetry is turned on.
 Nuclear repulsion after empirical dispersion term =     1086.4271910823 Hartrees.
 One-electron integrals computed using PRISM.
   1 Symmetry operations used in ECPInt.
 ECPInt:  NShTT=   27028 NPrTT=   82204 LenC2=   24426 LenP2D=   54459.
 LDataN:  DoStor=T MaxTD1= 6 Len=  172
 NBasis=   580 RedAO= T EigKep=  5.55D-06  NBF=   580
 NBsUse=   580 1.00D-06 EigRej= -1.00D+00 NBFU=   580
 ExpMin= 9.52D-02 ExpMax= 2.70D+04 ExpMxC= 9.22D+02 IAcc=3 IRadAn=         5 AccDes= 0.00D+00
 Harris functional with IExCor=  402 and IRadAn=       5 diagonalized for initial guess.
 HarFok:  IExCor=  402 AccDes= 0.00D+00 IRadAn=         5 IDoV= 1 UseB2=F ITyADJ=14
 ICtDFT=  3500011 ScaDFX=  1.000000  1.000000  1.000000  1.000000
 FoFCou: FMM=F IPFlag=           0 FMFlag=      100000 FMFlg1=           0
         NFxFlg=           0 DoJE=T BraDBF=F KetDBF=T FulRan=T
         wScrn=  0.000000 ICntrl=     500 IOpCl=  0 I1Cent=   200000004 NGrid=           0
         NMat0=    1 NMatS0=      1 NMatT0=    0 NMatD0=    1 NMtDS0=    0 NMtDT0=    0
 Petite list used in FoFCou.
 Keep R1 ints in memory in canonical form, NReq=14340362693.
 Requested convergence on RMS density matrix=1.00D-08 within 300 cycles.
 Requested convergence on MAX density matrix=1.00D-06.
 Requested convergence on             energy=1.00D-06.
 No special actions if energy rises.
 Integral accuracy reduced to 1.0D-05 until final iterations.
 Initial convergence to 1.0D-05 achieved.  Increase integral accuracy.
 SCF Done:  E(RB3LYP) =  -762.990404034     A.U. after   15 cycles
            NFock= 15  Conv=0.53D-08     -V/T= 2.0048

 **********************************************************************

            Population analysis using the SCF density.

 **********************************************************************

 Orbital symmetries:
       Occupied  (A) (A) (A) (A) (A) (A) (A) (A) (A) (A) (A) (A)
                 (A) (A) (A) (A) (A) (A) (A) (A) (A) (A) (A) (A)
                 (A) (A) (A) (A) (A) (A) (A) (A) (A) (A) (A) (A)
                 (A) (A) (A) (A) (A) (A) (A) (A) (A) (A) (A) (A)
                 (A) (A) (A) (A) (A) (A) (A) (A) (A) (A) (A)
       Virtual   (A) (A) (A) (A) (A) (A) (A) (A) (A) (A) (A) (A)
                 (A) (A) (A) (A) (A) (A) (A) (A) (A) (A) (A) (A)
                 (A) (A) (A) (A) (A) (A) (A) (A) (A) (A) (A) (A)
                 (A) (A) (A) (A) (A) (A) (A) (A) (A) (A) (A) (A)
                 (A) (A) (A) (A) (A) (A) (A) (A) (A) (A) (A) (A)
                 (A) (A) (A) (A) (A) (A) (A) (A) (A) (A) (A) (A)
                 (A) (A) (A) (A) (A) (A) (A) (A) (A) (A) (A) (A)
                 (A) (A) (A) (A) (A) (A) (A) (A) (A) (A) (A) (A)
                 (A) (A) (A) (A) (A) (A) (A) (A) (A) (A) (A) (A)
                 (A) (A) (A) (A) (A) (A) (A) (A) (A) (A) (A) (A)
                 (A) (A) (A) (A) (A) (A) (A) (A) (A) (A) (A) (A)
                 (A) (A) (A) (A) (A) (A) (A) (A) (A) (A) (A) (A)
                 (A) (A) (A) (A) (A) (A) (A) (A) (A) (A) (A) (A)
                 (A) (A) (A) (A) (A) (A) (A) (A) (A) (A) (A) (A)
                 (A) (A) (A) (A) (A) (A) (A) (A) (A) (A) (A) (A)
                 (A) (A) (A) (A) (A) (A) (A) (A) (A) (A) (A) (A)
                 (A) (A) (A) (A) (A) (A) (A) (A) (A) (A) (A) (A)
                 (A) (A) (A) (A) (A) (A) (A) (A) (A) (A) (A) (A)
                 (A) (A) (A) (A) (A) (A) (A) (A) (A) (A) (A) (A)
                 (A) (A) (A) (A) (A) (A) (A) (A) (A) (A) (A) (A)
                 (A) (A) (A) (A) (A) (A) (A) (A) (A) (A) (A) (A)
                 (A) (A) (A) (A) (A) (A) (A) (A) (A) (A) (A) (A)
                 (A) (A) (A) (A) (A) (A) (A) (A) (A) (A) (A) (A)
                 (A) (A) (A) (A) (A) (A) (A) (A) (A) (A) (A) (A)
                 (A) (A) (A) (A) (A) (A) (A) (A) (A) (A) (A) (A)
                 (A) (A) (A) (A) (A) (A) (A) (A) (A) (A) (A) (A)
                 (A) (A) (A) (A) (A) (A) (A) (A) (A) (A) (A) (A)
                 (A) (A) (A) (A) (A) (A) (A) (A) (A) (A) (A) (A)
                 (A) (A) (A) (A) (A) (A) (A) (A) (A) (A) (A) (A)
                 (A) (A) (A) (A) (A) (A) (A) (A) (A) (A) (A) (A)
                 (A) (A) (A) (A) (A) (A) (A) (A) (A) (A) (A) (A)
                 (A) (A) (A) (A) (A) (A) (A) (A) (A) (A) (A) (A)
                 (A) (A) (A) (A) (A) (A) (A) (A) (A) (A) (A) (A)
                 (A) (A) (A) (A) (A) (A) (A) (A) (A) (A) (A) (A)
                 (A) (A) (A) (A) (A) (A) (A) (A) (A) (A) (A) (A)
                 (A) (A) (A) (A) (A) (A) (A) (A) (A) (A) (A) (A)
                 (A) (A) (A) (A) (A) (A) (A) (A) (A) (A) (A) (A)
                 (A) (A) (A) (A) (A) (A) (A) (A) (A) (A) (A) (A)
                 (A) (A) (A) (A) (A) (A) (A) (A) (A) (A) (A) (A)
                 (A) (A) (A) (A) (A) (A) (A) (A) (A) (A) (A) (A)
                 (A) (A) (A) (A) (A) (A) (A) (A) (A) (A) (A) (A)
                 (A) (A) (A) (A) (A) (A) (A) (A) (A) (A) (A) (A)
                 (A) (A) (A) (A) (A) (A) (A) (A) (A) (A) (A) (A)
                 (A) (A) (A) (A) (A)
 The electronic state is 1-A.
 Alpha  occ. eigenvalues --  -19.15617 -19.15598 -19.13824 -14.55081 -14.35072
 Alpha  occ. eigenvalues --  -10.27322 -10.24074 -10.23610 -10.21733 -10.21720
 Alpha  occ. eigenvalues --  -10.20868 -10.20509 -10.20269 -10.19937 -10.19747
 Alpha  occ. eigenvalues --  -10.19336  -1.23028  -1.06505  -1.05594  -0.96936
 Alpha  occ. eigenvalues --   -0.89242  -0.82989  -0.80078  -0.77221  -0.73836
 Alpha  occ. eigenvalues --   -0.72275  -0.69263  -0.65235  -0.62685  -0.59064
 Alpha  occ. eigenvalues --   -0.57338  -0.55837  -0.53853  -0.53270  -0.52790
 Alpha  occ. eigenvalues --   -0.50534  -0.50155  -0.49042  -0.47749  -0.46655
 Alpha  occ. eigenvalues --   -0.46213  -0.45442  -0.44586  -0.42603  -0.41820
 Alpha  occ. eigenvalues --   -0.41404  -0.40344  -0.40101  -0.39022  -0.38149
 Alpha  occ. eigenvalues --   -0.37200  -0.36319  -0.31735  -0.31430  -0.30350
 Alpha  occ. eigenvalues --   -0.29703  -0.28557  -0.26848  -0.23836
 Alpha virt. eigenvalues --   -0.09372  -0.04077  -0.03753  -0.00939   0.01269
 Alpha virt. eigenvalues --    0.03687   0.04279   0.04543   0.06323   0.06911
 Alpha virt. eigenvalues --    0.07753   0.07908   0.08554   0.09082   0.09298
 Alpha virt. eigenvalues --    0.10559   0.11195   0.11543   0.12535   0.13257
 Alpha virt. eigenvalues --    0.13879   0.14691   0.14984   0.16317   0.17291
 Alpha virt. eigenvalues --    0.17630   0.18626   0.19057   0.20276   0.20655
 Alpha virt. eigenvalues --    0.21359   0.21890   0.22988   0.23708   0.24171
 Alpha virt. eigenvalues --    0.24869   0.25304   0.25568   0.26224   0.27418
 Alpha virt. eigenvalues --    0.28298   0.29290   0.29728   0.30144   0.30356
 Alpha virt. eigenvalues --    0.31882   0.32237   0.32835   0.33075   0.33351
 Alpha virt. eigenvalues --    0.34194   0.35682   0.36068   0.36873   0.37307
 Alpha virt. eigenvalues --    0.37801   0.38036   0.38626   0.39387   0.39954
 Alpha virt. eigenvalues --    0.40482   0.41192   0.41568   0.41880   0.42509
 Alpha virt. eigenvalues --    0.42723   0.43306   0.43685   0.44136   0.44849
 Alpha virt. eigenvalues --    0.45245   0.45854   0.46047   0.46477   0.47060
 Alpha virt. eigenvalues --    0.47266   0.48575   0.48914   0.49093   0.50508
 Alpha virt. eigenvalues --    0.50937   0.51427   0.52472   0.53737   0.54265
 Alpha virt. eigenvalues --    0.54494   0.56055   0.56812   0.57156   0.57696
 Alpha virt. eigenvalues --    0.58652   0.60028   0.61098   0.61882   0.62357
 Alpha virt. eigenvalues --    0.63186   0.64127   0.64640   0.65295   0.66275
 Alpha virt. eigenvalues --    0.66898   0.67866   0.69220   0.69917   0.70246
 Alpha virt. eigenvalues --    0.71349   0.72336   0.73245   0.74369   0.75438
 Alpha virt. eigenvalues --    0.77709   0.77918   0.79503   0.80016   0.80553
 Alpha virt. eigenvalues --    0.81908   0.82088   0.83758   0.84285   0.85324
 Alpha virt. eigenvalues --    0.87330   0.87616   0.88615   0.89976   0.90659
 Alpha virt. eigenvalues --    0.91348   0.92682   0.94407   0.96609   0.96950
 Alpha virt. eigenvalues --    0.97116   0.99296   1.00225   1.01853   1.02531
 Alpha virt. eigenvalues --    1.03948   1.04658   1.05660   1.06003   1.06948
 Alpha virt. eigenvalues --    1.07790   1.08597   1.09817   1.11044   1.12059
 Alpha virt. eigenvalues --    1.13465   1.14183   1.15828   1.16320   1.18962
 Alpha virt. eigenvalues --    1.20951   1.21933   1.23093   1.24773   1.25163
 Alpha virt. eigenvalues --    1.26162   1.26578   1.28358   1.29784   1.30197
 Alpha virt. eigenvalues --    1.31052   1.34359   1.34679   1.35741   1.37708
 Alpha virt. eigenvalues --    1.39939   1.40434   1.41360   1.41745   1.42927
 Alpha virt. eigenvalues --    1.44291   1.44891   1.45752   1.47147   1.49154
 Alpha virt. eigenvalues --    1.49306   1.50988   1.51498   1.51950   1.52754
 Alpha virt. eigenvalues --    1.53004   1.53566   1.53607   1.54798   1.54886
 Alpha virt. eigenvalues --    1.56823   1.57498   1.57937   1.58770   1.59483
 Alpha virt. eigenvalues --    1.61388   1.61733   1.61965   1.63009   1.64584
 Alpha virt. eigenvalues --    1.65564   1.67759   1.68965   1.70160   1.70968
 Alpha virt. eigenvalues --    1.71383   1.72481   1.73266   1.75065   1.76182
 Alpha virt. eigenvalues --    1.77846   1.79866   1.81247   1.82192   1.83392
 Alpha virt. eigenvalues --    1.85137   1.86749   1.86769   1.87963   1.89426
 Alpha virt. eigenvalues --    1.90408   1.91512   1.92592   1.93375   1.94741
 Alpha virt. eigenvalues --    1.95649   1.96376   1.98015   1.99953   2.00688
 Alpha virt. eigenvalues --    2.01795   2.03128   2.04896   2.05957   2.06117
 Alpha virt. eigenvalues --    2.07955   2.09699   2.10041   2.12007   2.12351
 Alpha virt. eigenvalues --    2.13605   2.15132   2.15613   2.16598   2.17100
 Alpha virt. eigenvalues --    2.17538   2.18975   2.19143   2.20012   2.22891
 Alpha virt. eigenvalues --    2.24606   2.25888   2.26523   2.28144   2.28841
 Alpha virt. eigenvalues --    2.30119   2.30872   2.32338   2.33182   2.35724
 Alpha virt. eigenvalues --    2.37216   2.38954   2.39453   2.41861   2.43295
 Alpha virt. eigenvalues --    2.43588   2.46333   2.47031   2.49244   2.50341
 Alpha virt. eigenvalues --    2.51039   2.51343   2.52045   2.52360   2.54340
 Alpha virt. eigenvalues --    2.54524   2.56155   2.56314   2.57494   2.58020
 Alpha virt. eigenvalues --    2.59272   2.60468   2.62082   2.62480   2.63733
 Alpha virt. eigenvalues --    2.63965   2.64989   2.65120   2.68009   2.68927
 Alpha virt. eigenvalues --    2.69282   2.70463   2.71719   2.72705   2.73090
 Alpha virt. eigenvalues --    2.73634   2.74913   2.75400   2.76691   2.77920
 Alpha virt. eigenvalues --    2.79868   2.80649   2.81568   2.82006   2.82335
 Alpha virt. eigenvalues --    2.84253   2.85333   2.85907   2.86616   2.88842
 Alpha virt. eigenvalues --    2.89268   2.90713   2.90877   2.93872   2.96143
 Alpha virt. eigenvalues --    2.96315   2.98157   2.98892   3.00141   3.00448
 Alpha virt. eigenvalues --    3.01128   3.01911   3.03514   3.04743   3.05659
 Alpha virt. eigenvalues --    3.06831   3.07530   3.09203   3.09966   3.10535
 Alpha virt. eigenvalues --    3.10938   3.12060   3.13564   3.13758   3.15626
 Alpha virt. eigenvalues --    3.16626   3.16865   3.17520   3.18787   3.19035
 Alpha virt. eigenvalues --    3.20344   3.20833   3.21674   3.22369   3.23217
 Alpha virt. eigenvalues --    3.24712   3.25871   3.26470   3.27676   3.28278
 Alpha virt. eigenvalues --    3.29603   3.30650   3.30856   3.32241   3.32762
 Alpha virt. eigenvalues --    3.33278   3.35013   3.35921   3.37128   3.38077
 Alpha virt. eigenvalues --    3.38669   3.39708   3.40388   3.42725   3.44223
 Alpha virt. eigenvalues --    3.44440   3.45234   3.45785   3.48033   3.49393
 Alpha virt. eigenvalues --    3.50458   3.51033   3.52434   3.53370   3.55892
 Alpha virt. eigenvalues --    3.56332   3.58309   3.58933   3.59446   3.59965
 Alpha virt. eigenvalues --    3.61959   3.64202   3.67440   3.67820   3.68698
 Alpha virt. eigenvalues --    3.70125   3.73450   3.73907   3.76220   3.76312
 Alpha virt. eigenvalues --    3.77991   3.79213   3.79617   3.84174   3.85073
 Alpha virt. eigenvalues --    3.85759   3.87158   3.89113   3.91217   3.95692
 Alpha virt. eigenvalues --    3.97510   3.98173   3.98693   3.99727   4.04503
 Alpha virt. eigenvalues --    4.05621   4.06331   4.06679   4.09410   4.10780
 Alpha virt. eigenvalues --    4.14044   4.14485   4.16129   4.18900   4.19887
 Alpha virt. eigenvalues --    4.20219   4.22181   4.22482   4.24106   4.25156
 Alpha virt. eigenvalues --    4.27419   4.28575   4.28807   4.31643   4.32733
 Alpha virt. eigenvalues --    4.35161   4.38199   4.40143   4.41749   4.44450
 Alpha virt. eigenvalues --    4.46931   4.48374   4.52210   4.53686   4.55269
 Alpha virt. eigenvalues --    4.58081   4.59598   4.63369   4.65040   4.66034
 Alpha virt. eigenvalues --    4.67857   4.69742   4.71464   4.72793   4.75425
 Alpha virt. eigenvalues --    4.81449   4.81880   4.86968   4.89164   4.91144
 Alpha virt. eigenvalues --    4.93665   4.96032   4.98487   5.00720   5.03510
 Alpha virt. eigenvalues --    5.07937   5.09758   5.12807   5.14082   5.14684
 Alpha virt. eigenvalues --    5.16718   5.17105   5.19944   5.21033   5.24349
 Alpha virt. eigenvalues --    5.25799   5.28877   5.30947   5.31642   5.34617
 Alpha virt. eigenvalues --    5.36294   5.40942   5.44722   5.47873   5.49643
 Alpha virt. eigenvalues --    5.53640   5.55121   5.59193   5.61183   5.64678
 Alpha virt. eigenvalues --    5.70071   5.72941   5.79208   5.82136   5.91843
 Alpha virt. eigenvalues --    5.97645   5.99344   6.09986   6.23305   6.27982
 Alpha virt. eigenvalues --    6.30746   6.32687   6.33643   6.40179   6.41553
 Alpha virt. eigenvalues --    6.41930   6.44908   6.45409   6.75517   6.77558
 Alpha virt. eigenvalues --    6.85153   6.87705   6.92326   6.93474   7.03594
 Alpha virt. eigenvalues --    7.13011   7.27048   7.41950   7.50032   7.55117
 Alpha virt. eigenvalues --   22.28475  22.37511  22.41848  22.48628  22.56297
 Alpha virt. eigenvalues --   22.71283  22.75049  22.82191  22.87738  23.01207
 Alpha virt. eigenvalues --   23.37689  32.51899  32.73480  43.74238  44.07241
 Alpha virt. eigenvalues --   44.12122
          Condensed to atoms (all electrons):
               1          2          3          4          5          6
     1  C    5.451418   0.260074   0.037983  -0.118243   0.024330   0.279788
     2  C    0.260074   5.539826   0.225326  -0.007311  -0.186314   0.010650
     3  C    0.037983   0.225326   5.422839   0.283751   0.058707  -0.129912
     4  C   -0.118243  -0.007311   0.283751   5.245550   0.305864   0.042434
     5  C    0.024330  -0.186314   0.058707   0.305864   5.312652   0.343720
     6  C    0.279788   0.010650  -0.129912   0.042434   0.343720   5.230415
     7  H   -0.073574   0.434610  -0.038724   0.010656  -0.005414   0.015915
     8  H   -0.002220   0.007974  -0.034738   0.420352  -0.051577   0.009891
     9  H    0.005457  -0.000906   0.013355  -0.041230   0.445805  -0.070707
    10  N   -0.122660   0.001412  -0.001389   0.007527  -0.076853   0.376666
    11  C    0.014488  -0.000911   0.000786  -0.003604   0.000233  -0.083999
    12  H   -0.005494  -0.000563   0.000325  -0.001663   0.011452  -0.017434
    13  H    0.001033   0.000130  -0.000035   0.000174   0.000159   0.009339
    14  H    0.004713   0.000597  -0.000536   0.001323  -0.014919   0.004054
    15  C    0.024373   0.005856  -0.000477  -0.000118  -0.015570  -0.079149
    16  H   -0.006376  -0.001186   0.000188  -0.001021   0.007625  -0.005350
    17  H    0.000795   0.000011  -0.000030   0.000141  -0.000914   0.012442
    18  H    0.005122   0.003575  -0.000437   0.000117   0.001538  -0.014433
    19  C    0.240157  -0.054968   0.019657  -0.002168   0.020106  -0.110422
    20  H   -0.064081   0.007934   0.003476   0.000191  -0.000827   0.004870
    21  H   -0.039053   0.009482  -0.002382   0.000415  -0.001263  -0.014477
    22  C   -0.042088  -0.014942   0.003200   0.000072  -0.000718  -0.010086
    23  H    0.008273   0.004215   0.000122  -0.000008  -0.001785  -0.015805
    24  H   -0.012801  -0.002342  -0.000203  -0.000114   0.000238   0.009145
    25  C    0.015313  -0.002301  -0.000223  -0.000015   0.000058   0.001719
    26  H    0.001857  -0.000284  -0.000003  -0.000002   0.000010   0.000050
    27  O    0.007747  -0.000483  -0.000016   0.000000   0.000003   0.000461
    28  N    0.008193  -0.064921   0.417933  -0.059935   0.007483  -0.001227
    29  O   -0.002698   0.022691  -0.170404   0.051979  -0.001682   0.001613
    30  O   -0.004000   0.042489  -0.166257   0.026594  -0.002613   0.002266
               7          8          9         10         11         12
     1  C   -0.073574  -0.002220   0.005457  -0.122660   0.014488  -0.005494
     2  C    0.434610   0.007974  -0.000906   0.001412  -0.000911  -0.000563
     3  C   -0.038724  -0.034738   0.013355  -0.001389   0.000786   0.000325
     4  C    0.010656   0.420352  -0.041230   0.007527  -0.003604  -0.001663
     5  C   -0.005414  -0.051577   0.445805  -0.076853   0.000233   0.011452
     6  C    0.015915   0.009891  -0.070707   0.376666  -0.083999  -0.017434
     7  H    0.491493  -0.000296   0.000054  -0.000128   0.000010  -0.000002
     8  H   -0.000296   0.484031  -0.006404  -0.000101  -0.000064   0.000009
     9  H    0.000054  -0.006404   0.539005  -0.004619   0.002455   0.003660
    10  N   -0.000128  -0.000101  -0.004619   6.654791   0.285273  -0.038600
    11  C    0.000010  -0.000064   0.002455   0.285273   4.930453   0.406134
    12  H   -0.000002   0.000009   0.003660  -0.038600   0.406134   0.613045
    13  H    0.000000  -0.000001   0.000137  -0.045922   0.405810  -0.041752
    14  H    0.000005   0.000015  -0.004427  -0.041186   0.416857  -0.040923
    15  C    0.000061   0.000021  -0.000884   0.260405  -0.059828  -0.017447
    16  H   -0.000009   0.000003   0.000308  -0.035608  -0.010977   0.019371
    17  H    0.000001  -0.000001  -0.000041  -0.049259  -0.006696  -0.002956
    18  H    0.000040   0.000000   0.000070  -0.035317   0.009197  -0.000495
    19  C   -0.010311   0.000089  -0.000233   0.005371  -0.003476   0.000433
    20  H    0.003377  -0.000002   0.000011   0.000753  -0.000013   0.000006
    21  H    0.000683  -0.000001   0.000005  -0.008745   0.000091  -0.000113
    22  C   -0.000266  -0.000006  -0.000020  -0.009532   0.001966  -0.000183
    23  H    0.000013   0.000001   0.000037   0.027011  -0.001046   0.000634
    24  H    0.000418  -0.000001   0.000005   0.001077  -0.000047   0.000015
    25  C   -0.000089   0.000000  -0.000002   0.002086   0.000007   0.000006
    26  H   -0.000002   0.000000   0.000000   0.000120   0.000019   0.000000
    27  O    0.000000   0.000000   0.000000   0.000088   0.000005   0.000000
    28  N   -0.007546  -0.006827  -0.000175   0.000004  -0.000001   0.000000
    29  O    0.001544   0.026259  -0.000140   0.000000   0.000000   0.000000
    30  O    0.029648   0.001346   0.000003   0.000001   0.000000   0.000000
              13         14         15         16         17         18
     1  C    0.001033   0.004713   0.024373  -0.006376   0.000795   0.005122
     2  C    0.000130   0.000597   0.005856  -0.001186   0.000011   0.003575
     3  C   -0.000035  -0.000536  -0.000477   0.000188  -0.000030  -0.000437
     4  C    0.000174   0.001323  -0.000118  -0.001021   0.000141   0.000117
     5  C    0.000159  -0.014919  -0.015570   0.007625  -0.000914   0.001538
     6  C    0.009339   0.004054  -0.079149  -0.005350   0.012442  -0.014433
     7  H    0.000000   0.000005   0.000061  -0.000009   0.000001   0.000040
     8  H   -0.000001   0.000015   0.000021   0.000003  -0.000001   0.000000
     9  H    0.000137  -0.004427  -0.000884   0.000308  -0.000041   0.000070
    10  N   -0.045922  -0.041186   0.260405  -0.035608  -0.049259  -0.035317
    11  C    0.405810   0.416857  -0.059828  -0.010977  -0.006696   0.009197
    12  H   -0.041752  -0.040923  -0.017447   0.019371  -0.002956  -0.000495
    13  H    0.555553  -0.013946  -0.001131  -0.004744   0.005143   0.000424
    14  H   -0.013946   0.538458   0.011767  -0.001136   0.000439  -0.000343
    15  C   -0.001131   0.011767   4.935954   0.385484   0.414704   0.418735
    16  H   -0.004744  -0.001136   0.385484   0.611022  -0.041234  -0.028509
    17  H    0.005143   0.000439   0.414704  -0.041234   0.560726  -0.019995
    18  H    0.000424  -0.000343   0.418735  -0.028509  -0.019995   0.529212
    19  C   -0.000297  -0.000749  -0.019108   0.002787   0.000001  -0.009461
    20  H   -0.000004  -0.000002   0.000253   0.000005  -0.000011  -0.000142
    21  H    0.000104   0.000089   0.001565  -0.000443  -0.000089   0.002734
    22  C    0.000492   0.000733   0.000093  -0.000034  -0.000360   0.001293
    23  H   -0.001107  -0.001074  -0.000663   0.000374  -0.000741  -0.000199
    24  H   -0.000027  -0.000042  -0.000166   0.000020  -0.000011  -0.000057
    25  C   -0.000020  -0.000006   0.000133  -0.000001   0.000141  -0.000388
    26  H   -0.000001   0.000001  -0.000031  -0.000001   0.000029  -0.000029
    27  O   -0.000001   0.000000   0.000008   0.000000   0.000099  -0.000296
    28  N    0.000000   0.000000   0.000000   0.000000   0.000000   0.000001
    29  O    0.000000   0.000000   0.000000   0.000000   0.000000   0.000000
    30  O    0.000000   0.000000   0.000000   0.000000   0.000000   0.000000
              19         20         21         22         23         24
     1  C    0.240157  -0.064081  -0.039053  -0.042088   0.008273  -0.012801
     2  C   -0.054968   0.007934   0.009482  -0.014942   0.004215  -0.002342
     3  C    0.019657   0.003476  -0.002382   0.003200   0.000122  -0.000203
     4  C   -0.002168   0.000191   0.000415   0.000072  -0.000008  -0.000114
     5  C    0.020106  -0.000827  -0.001263  -0.000718  -0.001785   0.000238
     6  C   -0.110422   0.004870  -0.014477  -0.010086  -0.015805   0.009145
     7  H   -0.010311   0.003377   0.000683  -0.000266   0.000013   0.000418
     8  H    0.000089  -0.000002  -0.000001  -0.000006   0.000001  -0.000001
     9  H   -0.000233   0.000011   0.000005  -0.000020   0.000037   0.000005
    10  N    0.005371   0.000753  -0.008745  -0.009532   0.027011   0.001077
    11  C   -0.003476  -0.000013   0.000091   0.001966  -0.001046  -0.000047
    12  H    0.000433   0.000006  -0.000113  -0.000183   0.000634   0.000015
    13  H   -0.000297  -0.000004   0.000104   0.000492  -0.001107  -0.000027
    14  H   -0.000749  -0.000002   0.000089   0.000733  -0.001074  -0.000042
    15  C   -0.019108   0.000253   0.001565   0.000093  -0.000663  -0.000166
    16  H    0.002787   0.000005  -0.000443  -0.000034   0.000374   0.000020
    17  H    0.000001  -0.000011  -0.000089  -0.000360  -0.000741  -0.000011
    18  H   -0.009461  -0.000142   0.002734   0.001293  -0.000199  -0.000057
    19  C    5.141310   0.419982   0.440773   0.216931  -0.052661  -0.028010
    20  H    0.419982   0.552760  -0.018084  -0.040635   0.005712  -0.002564
    21  H    0.440773  -0.018084   0.573804  -0.076246  -0.002459   0.006215
    22  C    0.216931  -0.040635  -0.076246   5.656169   0.369800   0.361979
    23  H   -0.052661   0.005712  -0.002459   0.369800   0.554493  -0.018917
    24  H   -0.028010  -0.002564   0.006215   0.361979  -0.018917   0.564464
    25  C   -0.016344   0.000146   0.004266   0.122101  -0.011397  -0.011218
    26  H    0.014550   0.001159   0.002094  -0.210906   0.007236   0.006561
    27  O    0.004876   0.007581   0.016974  -0.155866   0.003331   0.003937
    28  N   -0.000436  -0.000039   0.000007   0.000014   0.000001  -0.000001
    29  O   -0.000011   0.000000   0.000000  -0.000001   0.000000   0.000000
    30  O   -0.000530  -0.000031  -0.000003   0.000030   0.000000  -0.000012
              25         26         27         28         29         30
     1  C    0.015313   0.001857   0.007747   0.008193  -0.002698  -0.004000
     2  C   -0.002301  -0.000284  -0.000483  -0.064921   0.022691   0.042489
     3  C   -0.000223  -0.000003  -0.000016   0.417933  -0.170404  -0.166257
     4  C   -0.000015  -0.000002   0.000000  -0.059935   0.051979   0.026594
     5  C    0.000058   0.000010   0.000003   0.007483  -0.001682  -0.002613
     6  C    0.001719   0.000050   0.000461  -0.001227   0.001613   0.002266
     7  H   -0.000089  -0.000002   0.000000  -0.007546   0.001544   0.029648
     8  H    0.000000   0.000000   0.000000  -0.006827   0.026259   0.001346
     9  H   -0.000002   0.000000   0.000000  -0.000175  -0.000140   0.000003
    10  N    0.002086   0.000120   0.000088   0.000004   0.000000   0.000001
    11  C    0.000007   0.000019   0.000005  -0.000001   0.000000   0.000000
    12  H    0.000006   0.000000   0.000000   0.000000   0.000000   0.000000
    13  H   -0.000020  -0.000001  -0.000001   0.000000   0.000000   0.000000
    14  H   -0.000006   0.000001   0.000000   0.000000   0.000000   0.000000
    15  C    0.000133  -0.000031   0.000008   0.000000   0.000000   0.000000
    16  H   -0.000001  -0.000001   0.000000   0.000000   0.000000   0.000000
    17  H    0.000141   0.000029   0.000099   0.000000   0.000000   0.000000
    18  H   -0.000388  -0.000029  -0.000296   0.000001   0.000000   0.000000
    19  C   -0.016344   0.014550   0.004876  -0.000436  -0.000011  -0.000530
    20  H    0.000146   0.001159   0.007581  -0.000039   0.000000  -0.000031
    21  H    0.004266   0.002094   0.016974   0.000007   0.000000  -0.000003
    22  C    0.122101  -0.210906  -0.155866   0.000014  -0.000001   0.000030
    23  H   -0.011397   0.007236   0.003331   0.000001   0.000000   0.000000
    24  H   -0.011218   0.006561   0.003937  -0.000001   0.000000  -0.000012
    25  C    4.684496   0.463737   0.657761   0.000001   0.000000   0.000000
    26  H    0.463737   0.693057  -0.056894   0.000000   0.000000   0.000000
    27  O    0.657761  -0.056894   7.778545   0.000000   0.000000   0.000000
    28  N    0.000001   0.000000   0.000000   5.510144   0.387909   0.388840
    29  O    0.000000   0.000000   0.000000   0.387909   8.125067  -0.123740
    30  O    0.000000   0.000000   0.000000   0.388840  -0.123740   8.123006
 Mulliken charges:
               1
     1  C    0.102177
     2  C   -0.239419
     3  C    0.058117
     4  C   -0.161710
     5  C   -0.179532
     6  C    0.197563
     7  H    0.147835
     8  H    0.152246
     9  H    0.119419
    10  N   -0.152668
    11  C   -0.303122
    12  H    0.112536
    13  H    0.130490
    14  H    0.140236
    15  C   -0.264841
    16  H    0.109442
    17  H    0.127664
    18  H    0.138043
    19  C   -0.217836
    20  H    0.118219
    21  H    0.104058
    22  C   -0.172985
    23  H    0.126611
    24  H    0.122461
    25  C    0.090034
    26  H    0.077669
    27  O   -0.267858
    28  N    0.420577
    29  O   -0.318387
    30  O   -0.317038
 Sum of Mulliken charges =   0.00000
 Mulliken charges with hydrogens summed into heavy atoms:
               1
     1  C    0.102177
     2  C   -0.091584
     3  C    0.058117
     4  C   -0.009464
     5  C   -0.060113
     6  C    0.197563
    10  N   -0.152668
    11  C    0.080140
    15  C    0.110308
    19  C    0.004440
    22  C    0.076087
    25  C    0.167703
    27  O   -0.267858
    28  N    0.420577
    29  O   -0.318387
    30  O   -0.317038
 Electronic spatial extent (au):  <R**2>=           4422.8428
 Charge=              0.0000 electrons
 Dipole moment (field-independent basis, Debye):
    X=              4.1212    Y=              4.3255    Z=             -1.5991  Tot=              6.1847
 Quadrupole moment (field-independent basis, Debye-Ang):
   XX=           -123.8172   YY=            -93.6532   ZZ=            -92.2199
   XY=              2.0615   XZ=             -5.3587   YZ=              3.9126
 Traceless Quadrupole moment (field-independent basis, Debye-Ang):
   XX=            -20.5871   YY=              9.5769   ZZ=             11.0102
   XY=              2.0615   XZ=             -5.3587   YZ=              3.9126
 Octapole moment (field-independent basis, Debye-Ang**2):
  XXX=             62.6262  YYY=             23.4629  ZZZ=              0.1695  XYY=             -5.5737
  XXY=             68.0396  XXZ=            -20.4389  XZZ=              2.6465  YZZ=             -6.3665
  YYZ=            -15.2878  XYZ=             15.1395
 Hexadecapole moment (field-independent basis, Debye-Ang**3):
 XXXX=          -4369.5004 YYYY=          -1702.7429 ZZZZ=           -342.0749 XXXY=             66.6869
 XXXZ=           -100.7510 YYYX=             35.8384 YYYZ=              8.0327 ZZZX=              1.1295
 ZZZY=             -0.1274 XXYY=          -1018.4689 XXZZ=           -635.0113 YYZZ=           -332.6024
 XXYZ=             66.2623 YYXZ=            -26.1840 ZZXY=              1.7899
 N-N= 1.086427191082D+03 E-N=-3.952311194017D+03  KE= 7.593344744494D+02
 Running external command "gaunbo6 R"
         input file       "/home/aloke/aloke/prakash/Gau-46402.EIn"
         output file      "/home/aloke/aloke/prakash/Gau-46402.EOu"
         message file     "/home/aloke/aloke/prakash/Gau-46402.EMs"
         fchk file        "/home/aloke/aloke/prakash/Gau-46402.EFC"
         mat. el file     "/home/aloke/aloke/prakash/Gau-46402.EUF"

 Writing Wrt12E file "/home/aloke/aloke/prakash/Gau-46402.EUF"
 Gaussian matrix elements                                         Version   1 NLab= 7 Len12L=8 Len4L=8
 Write GAUSSIAN SCALARS               from file   501 offset           0 to matrix element file.
 Write OVERLAP                        from file   514 offset           0 to matrix element file.
 Write CORE HAMILTONIAN ALPHA         from file   515 offset           0 to matrix element file.
 Write CORE HAMILTONIAN BETA          from file   515 offset      168490 to matrix element file.
 Write KINETIC ENERGY                 from file   516 offset           0 to matrix element file.
 Write ORTHOGONAL BASIS               from file   685 offset           0 to matrix element file.
 Write DIPOLE INTEGRALS               from file   518 offset           0 to matrix element file.
 Array DIP VEL INTEGRALS               on  file    572 does not exist.
 Array R X DEL INTEGRALS               on  file    572 does not exist.
 Write ALPHA ORBITAL ENERGIES         from file     0 offset           0 to matrix element file.
 Write ALPHA MO COEFFICIENTS          from file 10524 offset           0 to matrix element file.
 Write ALPHA DENSITY MATRIX           from file     0 offset           0 to matrix element file.
 Write ALPHA SCF DENSITY MATRIX       from file 10528 offset           0 to matrix element file.
 Write ALPHA FOCK MATRIX              from file 10536 offset           0 to matrix element file.
 No 2e integrals to process.
 Perform NBO analysis...

 *********************************** NBO 6.0 ***********************************
             N A T U R A L   A T O M I C   O R B I T A L   A N D
          N A T U R A L   B O N D   O R B I T A L   A N A L Y S I S
 ************************* Aloke Das Software (101058) *************************
  (c) Copyright 1996-2016 Board of Regents of the University of Wisconsin System
      on behalf of the Theoretical Chemistry Institute.  All rights reserved.

          Cite this program as:

          NBO 6.0.  E. D. Glendening, J. K. Badenhoop, A. E. Reed,
          J. E. Carpenter, J. A. Bohmann, C. M. Morales, C. R. Landis,
          and F. Weinhold (Theoretical Chemistry Institute, University
          of Wisconsin, Madison, WI, 2013); http://nbo6.chem.wisc.edu/

       /E2PERT / : Analyze NBO Fock matrix
                   Print threshold set to 0.1
       /AONBO  / : Checkpoint the AO to NBO transformation
                   NBOs sorted by occupancy

 Filename set to /home/aloke/aloke/prakash/Gau-46402

 Job title:  Energy Optimisation and Frequency calculation


 NATURAL POPULATIONS:  Natural atomic orbital occupancies

  NAO Atom No lang   Type(AO)    Occupancy      Energy
 -------------------------------------------------------
   1    C  1  s      Cor( 1s)     1.99999     -10.20852
   2    C  1  s      Val( 2s)     0.92068      -0.12565
   3    C  1  s      Ryd( 3s)     0.00068       1.77775
   4    C  1  s      Ryd( 4s)     0.00012       2.21470
   5    C  1  s      Ryd( 5s)     0.00000      19.68004
   6    C  1  px     Val( 2p)     1.04412      -0.03759
   7    C  1  px     Ryd( 3p)     0.00442       1.11802
   8    C  1  px     Ryd( 4p)     0.00034       2.30629
   9    C  1  py     Val( 2p)     1.03867      -0.03538
  10    C  1  py     Ryd( 3p)     0.00308       1.05980
  11    C  1  py     Ryd( 4p)     0.00020       2.10122
  12    C  1  pz     Val( 2p)     1.00892      -0.12495
  13    C  1  pz     Ryd( 3p)     0.00189       0.75143
  14    C  1  pz     Ryd( 4p)     0.00010       1.47932
  15    C  1  dxy    Ryd( 3d)     0.00100       2.94595
  16    C  1  dxy    Ryd( 4d)     0.00059       3.95183
  17    C  1  dxz    Ryd( 3d)     0.00043       1.61827
  18    C  1  dxz    Ryd( 4d)     0.00025       3.43726
  19    C  1  dyz    Ryd( 3d)     0.00032       1.75648
  20    C  1  dyz    Ryd( 4d)     0.00021       3.45492
  21    C  1  dx2y2  Ryd( 3d)     0.00114       2.81663
  22    C  1  dx2y2  Ryd( 4d)     0.00066       4.09880
  23    C  1  dz2    Ryd( 3d)     0.00087       3.13379
  24    C  1  dz2    Ryd( 4d)     0.00007       3.74560
  25    C  1  f(0)   Ryd( 4f)     0.00041       3.32301
  26    C  1  f(c1)  Ryd( 4f)     0.00036       3.36799
  27    C  1  f(s1)  Ryd( 4f)     0.00034       3.37104
  28    C  1  f(c2)  Ryd( 4f)     0.00006       3.38241
  29    C  1  f(s2)  Ryd( 4f)     0.00007       3.38627
  30    C  1  f(c3)  Ryd( 4f)     0.00014       3.82388
  31    C  1  f(s3)  Ryd( 4f)     0.00067       3.93459

  32    C  2  s      Cor( 1s)     1.99999     -10.20259
  33    C  2  s      Val( 2s)     0.97340      -0.13974
  34    C  2  s      Ryd( 3s)     0.00065       2.99752
  35    C  2  s      Ryd( 4s)     0.00010       4.95287
  36    C  2  s      Ryd( 5s)     0.00001      13.64122
  37    C  2  px     Val( 2p)     1.03958      -0.03592
  38    C  2  px     Ryd( 3p)     0.00280       0.98697
  39    C  2  px     Ryd( 4p)     0.00018       2.06695
  40    C  2  py     Val( 2p)     1.17484      -0.07113
  41    C  2  py     Ryd( 3p)     0.00385       1.19883
  42    C  2  py     Ryd( 4p)     0.00019       2.23219
  43    C  2  pz     Val( 2p)     0.96861      -0.12959
  44    C  2  pz     Ryd( 3p)     0.00143       0.70574
  45    C  2  pz     Ryd( 4p)     0.00021       1.31401
  46    C  2  dxy    Ryd( 3d)     0.00233       2.06780
  47    C  2  dxy    Ryd( 4d)     0.00028       4.05545
  48    C  2  dxz    Ryd( 3d)     0.00045       1.54150
  49    C  2  dxz    Ryd( 4d)     0.00018       3.31607
  50    C  2  dyz    Ryd( 3d)     0.00058       1.52556
  51    C  2  dyz    Ryd( 4d)     0.00007       3.06655
  52    C  2  dx2y2  Ryd( 3d)     0.00096       2.41751
  53    C  2  dx2y2  Ryd( 4d)     0.00068       3.97194
  54    C  2  dz2    Ryd( 3d)     0.00130       1.94214
  55    C  2  dz2    Ryd( 4d)     0.00003       3.50062
  56    C  2  f(0)   Ryd( 4f)     0.00044       3.23695
  57    C  2  f(c1)  Ryd( 4f)     0.00031       3.45249
  58    C  2  f(s1)  Ryd( 4f)     0.00038       3.27335
  59    C  2  f(c2)  Ryd( 4f)     0.00013       3.34862
  60    C  2  f(s2)  Ryd( 4f)     0.00006       3.31983
  61    C  2  f(c3)  Ryd( 4f)     0.00019       3.74146
  62    C  2  f(s3)  Ryd( 4f)     0.00063       3.95840

  63    C  3  s      Cor( 1s)     1.99999     -10.23598
  64    C  3  s      Val( 2s)     0.92065      -0.14626
  65    C  3  s      Ryd( 3s)     0.00081       1.89234
  66    C  3  s      Ryd( 4s)     0.00011       2.28848
  67    C  3  s      Ryd( 5s)     0.00000      20.96871
  68    C  3  px     Val( 2p)     0.91133      -0.05534
  69    C  3  px     Ryd( 3p)     0.00532       1.06463
  70    C  3  px     Ryd( 4p)     0.00028       1.92053
  71    C  3  py     Val( 2p)     1.04477      -0.05840
  72    C  3  py     Ryd( 3p)     0.00542       1.15654
  73    C  3  py     Ryd( 4p)     0.00036       1.89219
  74    C  3  pz     Val( 2p)     1.08853      -0.14526
  75    C  3  pz     Ryd( 3p)     0.00165       0.75172
  76    C  3  pz     Ryd( 4p)     0.00014       1.27799
  77    C  3  dxy    Ryd( 3d)     0.00112       2.89232
  78    C  3  dxy    Ryd( 4d)     0.00064       4.12695
  79    C  3  dxz    Ryd( 3d)     0.00045       1.51735
  80    C  3  dxz    Ryd( 4d)     0.00018       3.36157
  81    C  3  dyz    Ryd( 3d)     0.00053       1.61548
  82    C  3  dyz    Ryd( 4d)     0.00026       3.48061
  83    C  3  dx2y2  Ryd( 3d)     0.00113       2.95747
  84    C  3  dx2y2  Ryd( 4d)     0.00055       4.04080
  85    C  3  dz2    Ryd( 3d)     0.00070       2.51392
  86    C  3  dz2    Ryd( 4d)     0.00015       3.79032
  87    C  3  f(0)   Ryd( 4f)     0.00042       3.33453
  88    C  3  f(c1)  Ryd( 4f)     0.00026       3.47013
  89    C  3  f(s1)  Ryd( 4f)     0.00033       3.40806
  90    C  3  f(c2)  Ryd( 4f)     0.00012       3.38711
  91    C  3  f(s2)  Ryd( 4f)     0.00010       3.40812
  92    C  3  f(c3)  Ryd( 4f)     0.00014       3.88713
  93    C  3  f(s3)  Ryd( 4f)     0.00068       3.98862

  94    C  4  s      Cor( 1s)     1.99999     -10.20496
  95    C  4  s      Val( 2s)     0.97769      -0.14450
  96    C  4  s      Ryd( 3s)     0.00083       2.18443
  97    C  4  s      Ryd( 4s)     0.00005       3.75091
  98    C  4  s      Ryd( 5s)     0.00000      16.32175
  99    C  4  px     Val( 2p)     1.14716      -0.06056
 100    C  4  px     Ryd( 3p)     0.00368       1.14055
 101    C  4  px     Ryd( 4p)     0.00016       2.10691
 102    C  4  py     Val( 2p)     1.06503      -0.04915
 103    C  4  py     Ryd( 3p)     0.00346       0.98876
 104    C  4  py     Ryd( 4p)     0.00017       1.94824
 105    C  4  pz     Val( 2p)     0.96357      -0.12924
 106    C  4  pz     Ryd( 3p)     0.00156       0.68218
 107    C  4  pz     Ryd( 4p)     0.00018       1.30706
 108    C  4  dxy    Ryd( 3d)     0.00098       2.26785
 109    C  4  dxy    Ryd( 4d)     0.00061       3.95657
 110    C  4  dxz    Ryd( 3d)     0.00044       1.54233
 111    C  4  dxz    Ryd( 4d)     0.00013       3.05626
 112    C  4  dyz    Ryd( 3d)     0.00057       1.56710
 113    C  4  dyz    Ryd( 4d)     0.00012       3.20359
 114    C  4  dx2y2  Ryd( 3d)     0.00197       2.15620
 115    C  4  dx2y2  Ryd( 4d)     0.00033       3.99580
 116    C  4  dz2    Ryd( 3d)     0.00130       1.85358
 117    C  4  dz2    Ryd( 4d)     0.00003       3.43108
 118    C  4  f(0)   Ryd( 4f)     0.00041       3.26345
 119    C  4  f(c1)  Ryd( 4f)     0.00035       3.34771
 120    C  4  f(s1)  Ryd( 4f)     0.00032       3.36286
 121    C  4  f(c2)  Ryd( 4f)     0.00007       3.34411
 122    C  4  f(s2)  Ryd( 4f)     0.00013       3.34672
 123    C  4  f(c3)  Ryd( 4f)     0.00017       3.69512
 124    C  4  f(s3)  Ryd( 4f)     0.00058       3.96862

 125    C  5  s      Cor( 1s)     1.99999     -10.19927
 126    C  5  s      Val( 2s)     0.97314      -0.14631
 127    C  5  s      Ryd( 3s)     0.00097       1.91963
 128    C  5  s      Ryd( 4s)     0.00007       2.54410
 129    C  5  s      Ryd( 5s)     0.00000      20.01725
 130    C  5  px     Val( 2p)     1.04670      -0.04036
 131    C  5  px     Ryd( 3p)     0.00236       0.93294
 132    C  5  px     Ryd( 4p)     0.00015       1.98187
 133    C  5  py     Val( 2p)     1.15965      -0.07042
 134    C  5  py     Ryd( 3p)     0.00320       1.14592
 135    C  5  py     Ryd( 4p)     0.00030       2.05318
 136    C  5  pz     Val( 2p)     1.04912      -0.13386
 137    C  5  pz     Ryd( 3p)     0.00212       0.67386
 138    C  5  pz     Ryd( 4p)     0.00020       1.32325
 139    C  5  dxy    Ryd( 3d)     0.00191       2.18027
 140    C  5  dxy    Ryd( 4d)     0.00021       3.93462
 141    C  5  dxz    Ryd( 3d)     0.00032       1.63019
 142    C  5  dxz    Ryd( 4d)     0.00015       3.24959
 143    C  5  dyz    Ryd( 3d)     0.00054       1.64358
 144    C  5  dyz    Ryd( 4d)     0.00008       2.99530
 145    C  5  dx2y2  Ryd( 3d)     0.00073       2.30861
 146    C  5  dx2y2  Ryd( 4d)     0.00068       3.93153
 147    C  5  dz2    Ryd( 3d)     0.00117       1.98221
 148    C  5  dz2    Ryd( 4d)     0.00002       3.40312
 149    C  5  f(0)   Ryd( 4f)     0.00045       3.25371
 150    C  5  f(c1)  Ryd( 4f)     0.00030       3.44365
 151    C  5  f(s1)  Ryd( 4f)     0.00036       3.25487
 152    C  5  f(c2)  Ryd( 4f)     0.00013       3.35425
 153    C  5  f(s2)  Ryd( 4f)     0.00007       3.33286
 154    C  5  f(c3)  Ryd( 4f)     0.00018       3.70342
 155    C  5  f(s3)  Ryd( 4f)     0.00059       3.94779

 156    C  6  s      Cor( 1s)     1.99999     -10.24061
 157    C  6  s      Val( 2s)     0.87828      -0.11691
 158    C  6  s      Ryd( 3s)     0.00109       1.41967
 159    C  6  s      Ryd( 4s)     0.00015       1.71815
 160    C  6  s      Ryd( 5s)     0.00000      20.85216
 161    C  6  px     Val( 2p)     0.92405      -0.02008
 162    C  6  px     Ryd( 3p)     0.00394       1.10327
 163    C  6  px     Ryd( 4p)     0.00045       1.92953
 164    C  6  py     Val( 2p)     1.02170      -0.04003
 165    C  6  py     Ryd( 3p)     0.00328       0.95885
 166    C  6  py     Ryd( 4p)     0.00037       1.97014
 167    C  6  pz     Val( 2p)     0.97091      -0.13068
 168    C  6  pz     Ryd( 3p)     0.00267       0.72143
 169    C  6  pz     Ryd( 4p)     0.00017       1.45436
 170    C  6  dxy    Ryd( 4d)     0.00075       3.32341
 171    C  6  dxy    Ryd( 3d)     0.00099       4.07464
 172    C  6  dxz    Ryd( 3d)     0.00064       2.02820
 173    C  6  dxz    Ryd( 4d)     0.00029       3.18901
 174    C  6  dyz    Ryd( 3d)     0.00038       2.02478
 175    C  6  dyz    Ryd( 4d)     0.00018       3.17041
 176    C  6  dx2y2  Ryd( 3d)     0.00108       3.00629
 177    C  6  dx2y2  Ryd( 4d)     0.00088       4.07650
 178    C  6  dz2    Ryd( 3d)     0.00059       3.23839
 179    C  6  dz2    Ryd( 4d)     0.00010       3.38120
 180    C  6  f(0)   Ryd( 4f)     0.00036       3.36280
 181    C  6  f(c1)  Ryd( 4f)     0.00026       3.42395
 182    C  6  f(s1)  Ryd( 4f)     0.00029       3.37884
 183    C  6  f(c2)  Ryd( 4f)     0.00010       3.40907
 184    C  6  f(s2)  Ryd( 4f)     0.00010       3.44979
 185    C  6  f(c3)  Ryd( 4f)     0.00011       3.87163
 186    C  6  f(s3)  Ryd( 4f)     0.00059       3.88376

 187    H  7  s      Val( 1s)     0.75698       0.04448
 188    H  7  s      Ryd( 2s)     0.00075       1.17089
 189    H  7  s      Ryd( 3s)     0.00007       1.50905
 190    H  7  px     Ryd( 2p)     0.00010       2.60830
 191    H  7  py     Ryd( 2p)     0.00080       2.85079
 192    H  7  pz     Ryd( 2p)     0.00014       2.16005

 193    H  8  s      Val( 1s)     0.75286       0.04463
 194    H  8  s      Ryd( 2s)     0.00050       1.16312
 195    H  8  s      Ryd( 3s)     0.00009       1.46671
 196    H  8  px     Ryd( 2p)     0.00062       2.76249
 197    H  8  py     Ryd( 2p)     0.00019       2.68449
 198    H  8  pz     Ryd( 2p)     0.00013       2.17697

 199    H  9  s      Val( 1s)     0.78116       0.02961
 200    H  9  s      Ryd( 2s)     0.00079       0.74987
 201    H  9  s      Ryd( 3s)     0.00009       1.90436
 202    H  9  px     Ryd( 2p)     0.00007       2.57414
 203    H  9  py     Ryd( 2p)     0.00081       2.83405
 204    H  9  pz     Ryd( 2p)     0.00018       2.15281

 205    N 10  s      Cor( 1s)     1.99999     -14.35052
 206    N 10  s      Val( 2s)     1.23986      -0.43097
 207    N 10  s      Ryd( 3s)     0.00094       1.55509
 208    N 10  s      Ryd( 4s)     0.00006       5.24219
 209    N 10  s      Ryd( 5s)     0.00000      25.32034
 210    N 10  px     Val( 2p)     1.39798      -0.21147
 211    N 10  px     Ryd( 3p)     0.00415       0.67835
 212    N 10  px     Ryd( 4p)     0.00019       2.92880
 213    N 10  py     Val( 2p)     1.44728      -0.22002
 214    N 10  py     Ryd( 3p)     0.00540       0.90202
 215    N 10  py     Ryd( 4p)     0.00015       2.83253
 216    N 10  pz     Val( 2p)     1.31257      -0.21116
 217    N 10  pz     Ryd( 3p)     0.00329       0.78481
 218    N 10  pz     Ryd( 4p)     0.00010       2.75968
 219    N 10  dxy    Ryd( 3d)     0.00141       2.60924
 220    N 10  dxy    Ryd( 4d)     0.00016       5.24199
 221    N 10  dxz    Ryd( 3d)     0.00085       2.08416
 222    N 10  dxz    Ryd( 4d)     0.00016       4.96503
 223    N 10  dyz    Ryd( 3d)     0.00136       2.10764
 224    N 10  dyz    Ryd( 4d)     0.00012       5.05646
 225    N 10  dx2y2  Ryd( 3d)     0.00205       2.18755
 226    N 10  dx2y2  Ryd( 4d)     0.00015       5.04609
 227    N 10  dz2    Ryd( 3d)     0.00185       2.00627
 228    N 10  dz2    Ryd( 4d)     0.00014       5.12980
 229    N 10  f(0)   Ryd( 4f)     0.00008       4.70993
 230    N 10  f(c1)  Ryd( 4f)     0.00014       4.71849
 231    N 10  f(s1)  Ryd( 4f)     0.00006       4.72539
 232    N 10  f(c2)  Ryd( 4f)     0.00012       4.63990
 233    N 10  f(s2)  Ryd( 4f)     0.00015       4.61453
 234    N 10  f(c3)  Ryd( 4f)     0.00012       4.83763
 235    N 10  f(s3)  Ryd( 4f)     0.00016       4.66883

 236    C 11  s      Cor( 1s)     1.99999     -10.21723
 237    C 11  s      Val( 2s)     1.08552      -0.23553
 238    C 11  s      Ryd( 3s)     0.00082       1.44287
 239    C 11  s      Ryd( 4s)     0.00003       1.74089
 240    C 11  s      Ryd( 5s)     0.00000      21.50131
 241    C 11  px     Val( 2p)     1.20604      -0.13330
 242    C 11  px     Ryd( 3p)     0.00180       0.75509
 243    C 11  px     Ryd( 4p)     0.00023       1.58374
 244    C 11  py     Val( 2p)     0.99605      -0.09936
 245    C 11  py     Ryd( 3p)     0.00119       0.61873
 246    C 11  py     Ryd( 4p)     0.00020       1.50218
 247    C 11  pz     Val( 2p)     1.10179      -0.11942
 248    C 11  pz     Ryd( 3p)     0.00160       0.64517
 249    C 11  pz     Ryd( 4p)     0.00010       1.51058
 250    C 11  dxy    Ryd( 3d)     0.00074       2.07519
 251    C 11  dxy    Ryd( 4d)     0.00006       2.62741
 252    C 11  dxz    Ryd( 3d)     0.00071       2.01722
 253    C 11  dxz    Ryd( 4d)     0.00005       2.56385
 254    C 11  dyz    Ryd( 3d)     0.00093       2.84609
 255    C 11  dyz    Ryd( 4d)     0.00009       2.86238
 256    C 11  dx2y2  Ryd( 3d)     0.00125       2.41822
 257    C 11  dx2y2  Ryd( 4d)     0.00005       2.87911
 258    C 11  dz2    Ryd( 3d)     0.00111       2.03757
 259    C 11  dz2    Ryd( 4d)     0.00005       2.75227
 260    C 11  f(0)   Ryd( 4f)     0.00014       3.47609
 261    C 11  f(c1)  Ryd( 4f)     0.00016       3.54251
 262    C 11  f(s1)  Ryd( 4f)     0.00008       3.47423
 263    C 11  f(c2)  Ryd( 4f)     0.00020       3.42162
 264    C 11  f(s2)  Ryd( 4f)     0.00005       3.45648
 265    C 11  f(c3)  Ryd( 4f)     0.00020       3.64100
 266    C 11  f(s3)  Ryd( 4f)     0.00006       3.36332

 267    H 12  s      Val( 1s)     0.82758      -0.00750
 268    H 12  s      Ryd( 2s)     0.00283       0.52403
 269    H 12  s      Ryd( 3s)     0.00004       2.07781
 270    H 12  px     Ryd( 2p)     0.00018       2.24102
 271    H 12  py     Ryd( 2p)     0.00052       2.66800
 272    H 12  pz     Ryd( 2p)     0.00018       2.22361

 273    H 13  s      Val( 1s)     0.79588       0.00796
 274    H 13  s      Ryd( 2s)     0.00063       0.73500
 275    H 13  s      Ryd( 3s)     0.00004       1.75835
 276    H 13  px     Ryd( 2p)     0.00081       2.70292
 277    H 13  py     Ryd( 2p)     0.00011       2.20940
 278    H 13  pz     Ryd( 2p)     0.00009       2.15181

 279    H 14  s      Val( 1s)     0.79239       0.00931
 280    H 14  s      Ryd( 2s)     0.00048       0.52422
 281    H 14  s      Ryd( 3s)     0.00005       2.00993
 282    H 14  px     Ryd( 2p)     0.00016       2.20774
 283    H 14  py     Ryd( 2p)     0.00010       2.19184
 284    H 14  pz     Ryd( 2p)     0.00066       2.74628

 285    C 15  s      Cor( 1s)     1.99999     -10.21709
 286    C 15  s      Val( 2s)     1.08931      -0.23616
 287    C 15  s      Ryd( 3s)     0.00094       1.32697
 288    C 15  s      Ryd( 4s)     0.00004       1.82733
 289    C 15  s      Ryd( 5s)     0.00000      21.67907
 290    C 15  px     Val( 2p)     1.14626      -0.12449
 291    C 15  px     Ryd( 3p)     0.00148       0.67830
 292    C 15  px     Ryd( 4p)     0.00015       1.51381
 293    C 15  py     Val( 2p)     1.20099      -0.13070
 294    C 15  py     Ryd( 3p)     0.00149       0.63127
 295    C 15  py     Ryd( 4p)     0.00016       1.52214
 296    C 15  pz     Val( 2p)     0.94544      -0.09430
 297    C 15  pz     Ryd( 3p)     0.00122       0.61395
 298    C 15  pz     Ryd( 4p)     0.00025       1.53576
 299    C 15  dxy    Ryd( 3d)     0.00064       1.92102
 300    C 15  dxy    Ryd( 4d)     0.00005       2.61517
 301    C 15  dxz    Ryd( 3d)     0.00068       2.47300
 302    C 15  dxz    Ryd( 4d)     0.00005       2.69885
 303    C 15  dyz    Ryd( 3d)     0.00139       2.01415
 304    C 15  dyz    Ryd( 4d)     0.00009       2.97724
 305    C 15  dx2y2  Ryd( 3d)     0.00142       2.02250
 306    C 15  dx2y2  Ryd( 4d)     0.00005       2.92725
 307    C 15  dz2    Ryd( 3d)     0.00080       2.50425
 308    C 15  dz2    Ryd( 4d)     0.00010       2.79125
 309    C 15  f(0)   Ryd( 4f)     0.00012       3.59677
 310    C 15  f(c1)  Ryd( 4f)     0.00022       3.59356
 311    C 15  f(s1)  Ryd( 4f)     0.00005       3.40623
 312    C 15  f(c2)  Ryd( 4f)     0.00027       3.57923
 313    C 15  f(s2)  Ryd( 4f)     0.00003       3.48437
 314    C 15  f(c3)  Ryd( 4f)     0.00021       3.50332
 315    C 15  f(s3)  Ryd( 4f)     0.00002       3.22252

 316    H 16  s      Val( 1s)     0.82199      -0.00230
 317    H 16  s      Ryd( 2s)     0.00274       0.52436
 318    H 16  s      Ryd( 3s)     0.00003       2.01955
 319    H 16  px     Ryd( 2p)     0.00015       2.19756
 320    H 16  py     Ryd( 2p)     0.00048       2.55408
 321    H 16  pz     Ryd( 2p)     0.00025       2.38711

 322    H 17  s      Val( 1s)     0.80105       0.00799
 323    H 17  s      Ryd( 2s)     0.00071       0.63820
 324    H 17  s      Ryd( 3s)     0.00003       1.82865
 325    H 17  px     Ryd( 2p)     0.00090       2.75503
 326    H 17  py     Ryd( 2p)     0.00007       2.09505
 327    H 17  pz     Ryd( 2p)     0.00010       2.18755

 328    H 18  s      Val( 1s)     0.79166       0.01598
 329    H 18  s      Ryd( 2s)     0.00036       0.78896
 330    H 18  s      Ryd( 3s)     0.00004       1.84585
 331    H 18  px     Ryd( 2p)     0.00010       2.17435
 332    H 18  py     Ryd( 2p)     0.00049       2.51013
 333    H 18  pz     Ryd( 2p)     0.00038       2.53641

 334    C 19  s      Cor( 1s)     1.99999     -10.19321
 335    C 19  s      Val( 2s)     1.04231      -0.20302
 336    C 19  s      Ryd( 3s)     0.00122       1.60393
 337    C 19  s      Ryd( 4s)     0.00006       2.01703
 338    C 19  s      Ryd( 5s)     0.00000      21.00849
 339    C 19  px     Val( 2p)     1.09100      -0.09012
 340    C 19  px     Ryd( 3p)     0.00375       0.87955
 341    C 19  px     Ryd( 4p)     0.00013       1.78081
 342    C 19  py     Val( 2p)     1.16423      -0.10652
 343    C 19  py     Ryd( 3p)     0.00357       0.92909
 344    C 19  py     Ryd( 4p)     0.00013       1.70361
 345    C 19  pz     Val( 2p)     1.09503      -0.09792
 346    C 19  pz     Ryd( 3p)     0.00087       0.63222
 347    C 19  pz     Ryd( 4p)     0.00020       1.61004
 348    C 19  dxy    Ryd( 3d)     0.00136       2.43230
 349    C 19  dxy    Ryd( 4d)     0.00014       3.54801
 350    C 19  dxz    Ryd( 3d)     0.00091       2.04394
 351    C 19  dxz    Ryd( 4d)     0.00020       3.53955
 352    C 19  dyz    Ryd( 3d)     0.00054       1.83491
 353    C 19  dyz    Ryd( 4d)     0.00020       3.11736
 354    C 19  dx2y2  Ryd( 3d)     0.00047       2.07545
 355    C 19  dx2y2  Ryd( 4d)     0.00027       3.28919
 356    C 19  dz2    Ryd( 3d)     0.00085       2.12771
 357    C 19  dz2    Ryd( 4d)     0.00013       3.36556
 358    C 19  f(0)   Ryd( 4f)     0.00008       3.54044
 359    C 19  f(c1)  Ryd( 4f)     0.00031       3.63653
 360    C 19  f(s1)  Ryd( 4f)     0.00001       3.41565
 361    C 19  f(c2)  Ryd( 4f)     0.00006       3.52531
 362    C 19  f(s2)  Ryd( 4f)     0.00017       3.67810
 363    C 19  f(c3)  Ryd( 4f)     0.00010       3.65739
 364    C 19  f(s3)  Ryd( 4f)     0.00022       3.52343

 365    H 20  s      Val( 1s)     0.77882       0.02703
 366    H 20  s      Ryd( 2s)     0.00075       0.72855
 367    H 20  s      Ryd( 3s)     0.00003       1.92945
 368    H 20  px     Ryd( 2p)     0.00013       2.39059
 369    H 20  py     Ryd( 2p)     0.00071       2.75373
 370    H 20  pz     Ryd( 2p)     0.00021       2.39782

 371    H 21  s      Val( 1s)     0.77515       0.03199
 372    H 21  s      Ryd( 2s)     0.00132       0.67609
 373    H 21  s      Ryd( 3s)     0.00003       2.09225
 374    H 21  px     Ryd( 2p)     0.00047       2.62520
 375    H 21  py     Ryd( 2p)     0.00017       2.35966
 376    H 21  pz     Ryd( 2p)     0.00046       2.69966

 377    C 22  s      Cor( 1s)     1.99999     -10.19731
 378    C 22  s      Val( 2s)     1.08947      -0.23941
 379    C 22  s      Ryd( 3s)     0.00083       1.20934
 380    C 22  s      Ryd( 4s)     0.00004       3.10777
 381    C 22  s      Ryd( 5s)     0.00001      19.58248
 382    C 22  px     Val( 2p)     1.09551      -0.11146
 383    C 22  px     Ryd( 3p)     0.00127       0.69348
 384    C 22  px     Ryd( 4p)     0.00012       1.71744
 385    C 22  py     Val( 2p)     1.18081      -0.12690
 386    C 22  py     Ryd( 3p)     0.00071       0.71241
 387    C 22  py     Ryd( 4p)     0.00008       1.60056
 388    C 22  pz     Val( 2p)     1.11684      -0.10801
 389    C 22  pz     Ryd( 3p)     0.00155       0.59426
 390    C 22  pz     Ryd( 4p)     0.00024       1.66287
 391    C 22  dxy    Ryd( 3d)     0.00142       1.99841
 392    C 22  dxy    Ryd( 4d)     0.00005       3.34543
 393    C 22  dxz    Ryd( 3d)     0.00095       1.99122
 394    C 22  dxz    Ryd( 4d)     0.00017       3.57112
 395    C 22  dyz    Ryd( 3d)     0.00104       1.82640
 396    C 22  dyz    Ryd( 4d)     0.00014       3.22384
 397    C 22  dx2y2  Ryd( 3d)     0.00055       1.81097
 398    C 22  dx2y2  Ryd( 4d)     0.00010       3.14611
 399    C 22  dz2    Ryd( 3d)     0.00108       2.00558
 400    C 22  dz2    Ryd( 4d)     0.00012       3.29594
 401    C 22  f(0)   Ryd( 4f)     0.00011       3.51405
 402    C 22  f(c1)  Ryd( 4f)     0.00050       3.52764
 403    C 22  f(s1)  Ryd( 4f)     0.00004       3.36981
 404    C 22  f(c2)  Ryd( 4f)     0.00010       3.44781
 405    C 22  f(s2)  Ryd( 4f)     0.00021       3.64048
 406    C 22  f(c3)  Ryd( 4f)     0.00003       3.38085
 407    C 22  f(s3)  Ryd( 4f)     0.00025       3.51465

 408    H 23  s      Val( 1s)     0.75866       0.00913
 409    H 23  s      Ryd( 2s)     0.00084       0.81689
 410    H 23  s      Ryd( 3s)     0.00004       1.93890
 411    H 23  px     Ryd( 2p)     0.00011       2.32959
 412    H 23  py     Ryd( 2p)     0.00070       2.69136
 413    H 23  pz     Ryd( 2p)     0.00020       2.45566

 414    H 24  s      Val( 1s)     0.77394       0.00131
 415    H 24  s      Ryd( 2s)     0.00061       0.70631
 416    H 24  s      Ryd( 3s)     0.00002       1.87763
 417    H 24  px     Ryd( 2p)     0.00035       2.51304
 418    H 24  py     Ryd( 2p)     0.00019       2.33166
 419    H 24  pz     Ryd( 2p)     0.00043       2.58528

 420    C 25  s      Cor( 1s)     1.99999     -10.27312
 421    C 25  s      Val( 2s)     0.95483      -0.19057
 422    C 25  s      Ryd( 3s)     0.00954       1.17672
 423    C 25  s      Ryd( 4s)     0.00006       1.02173
 424    C 25  s      Ryd( 5s)     0.00001      22.14232
 425    C 25  px     Val( 2p)     0.89780      -0.07039
 426    C 25  px     Ryd( 3p)     0.00394       1.01954
 427    C 25  px     Ryd( 4p)     0.00014       1.06947
 428    C 25  py     Val( 2p)     0.75206      -0.11011
 429    C 25  py     Ryd( 3p)     0.00225       0.94126
 430    C 25  py     Ryd( 4p)     0.00020       0.89601
 431    C 25  pz     Val( 2p)     0.92420      -0.03289
 432    C 25  pz     Ryd( 3p)     0.00861       1.18132
 433    C 25  pz     Ryd( 4p)     0.00029       1.12536
 434    C 25  dxy    Ryd( 3d)     0.00065       2.92168
 435    C 25  dxy    Ryd( 4d)     0.00009       2.18054
 436    C 25  dxz    Ryd( 3d)     0.00124       2.86452
 437    C 25  dxz    Ryd( 4d)     0.00032       2.40179
 438    C 25  dyz    Ryd( 3d)     0.00083       2.73735
 439    C 25  dyz    Ryd( 4d)     0.00023       2.03126
 440    C 25  dx2y2  Ryd( 3d)     0.00052       2.68734
 441    C 25  dx2y2  Ryd( 4d)     0.00002       2.02553
 442    C 25  dz2    Ryd( 3d)     0.00161       2.96047
 443    C 25  dz2    Ryd( 4d)     0.00038       2.31464
 444    C 25  f(0)   Ryd( 4f)     0.00013       3.51116
 445    C 25  f(c1)  Ryd( 4f)     0.00038       3.68774
 446    C 25  f(s1)  Ryd( 4f)     0.00016       3.32158
 447    C 25  f(c2)  Ryd( 4f)     0.00005       3.33220
 448    C 25  f(s2)  Ryd( 4f)     0.00007       3.40694
 449    C 25  f(c3)  Ryd( 4f)     0.00007       3.26884
 450    C 25  f(s3)  Ryd( 4f)     0.00023       3.24193

 451    H 26  s      Val( 1s)     0.89477      -0.04426
 452    H 26  s      Ryd( 2s)     0.00303       0.44381
 453    H 26  s      Ryd( 3s)     0.00009       2.12324
 454    H 26  px     Ryd( 2p)     0.00034       2.37180
 455    H 26  py     Ryd( 2p)     0.00012       2.11758
 456    H 26  pz     Ryd( 2p)     0.00063       2.68133

 457    O 27  s      Cor( 1s)     1.99999     -19.13800
 458    O 27  s      Val( 2s)     1.70305      -0.69479
 459    O 27  s      Ryd( 3s)     0.00052       1.28645
 460    O 27  s      Ryd( 4s)     0.00002       4.74902
 461    O 27  s      Ryd( 5s)     0.00000      41.69924
 462    O 27  px     Val( 2p)     1.69185      -0.28035
 463    O 27  px     Ryd( 3p)     0.00226       0.66040
 464    O 27  px     Ryd( 4p)     0.00005       3.16892
 465    O 27  py     Val( 2p)     1.45438      -0.27291
 466    O 27  py     Ryd( 3p)     0.00106       0.59684
 467    O 27  py     Ryd( 4p)     0.00003       3.00180
 468    O 27  pz     Val( 2p)     1.63942      -0.28970
 469    O 27  pz     Ryd( 3p)     0.00133       0.61728
 470    O 27  pz     Ryd( 4p)     0.00013       3.49044
 471    O 27  dxy    Ryd( 3d)     0.00136       1.69500
 472    O 27  dxy    Ryd( 4d)     0.00001       6.44031
 473    O 27  dxz    Ryd( 3d)     0.00543       1.91480
 474    O 27  dxz    Ryd( 4d)     0.00002       6.56020
 475    O 27  dyz    Ryd( 3d)     0.00474       1.84060
 476    O 27  dyz    Ryd( 4d)     0.00001       6.49322
 477    O 27  dx2y2  Ryd( 3d)     0.00127       1.66591
 478    O 27  dx2y2  Ryd( 4d)     0.00000       6.37068
 479    O 27  dz2    Ryd( 3d)     0.00621       2.05139
 480    O 27  dz2    Ryd( 4d)     0.00004       6.67703
 481    O 27  f(0)   Ryd( 4f)     0.00013       5.94089
 482    O 27  f(c1)  Ryd( 4f)     0.00011       5.84528
 483    O 27  f(s1)  Ryd( 4f)     0.00009       5.76282
 484    O 27  f(c2)  Ryd( 4f)     0.00010       5.58347
 485    O 27  f(s2)  Ryd( 4f)     0.00009       5.62837
 486    O 27  f(c3)  Ryd( 4f)     0.00000       5.26692
 487    O 27  f(s3)  Ryd( 4f)     0.00000       5.28519

 488    N 28  s      Cor( 1s)     1.99999     -14.55068
 489    N 28  s      Val( 2s)     1.12105      -0.46865
 490    N 28  s      Ryd( 3s)     0.00436       2.22319
 491    N 28  s      Ryd( 4s)     0.00021       1.90250
 492    N 28  s      Ryd( 5s)     0.00000      27.92688
 493    N 28  px     Val( 2p)     1.14124      -0.26158
 494    N 28  px     Ryd( 3p)     0.00798       1.24378
 495    N 28  px     Ryd( 4p)     0.00008       2.15400
 496    N 28  py     Val( 2p)     1.04642      -0.24063
 497    N 28  py     Ryd( 3p)     0.01089       1.35449
 498    N 28  py     Ryd( 4p)     0.00009       2.48052
 499    N 28  pz     Val( 2p)     1.14872      -0.31267
 500    N 28  pz     Ryd( 3p)     0.00195       0.96796
 501    N 28  pz     Ryd( 4p)     0.00016       1.73620
 502    N 28  dxy    Ryd( 3d)     0.00370       2.68246
 503    N 28  dxy    Ryd( 4d)     0.00017       5.13778
 504    N 28  dxz    Ryd( 3d)     0.00185       2.25769
 505    N 28  dxz    Ryd( 4d)     0.00005       4.27059
 506    N 28  dyz    Ryd( 3d)     0.00353       2.45472
 507    N 28  dyz    Ryd( 4d)     0.00010       4.34497
 508    N 28  dx2y2  Ryd( 3d)     0.00307       2.77924
 509    N 28  dx2y2  Ryd( 4d)     0.00023       5.31846
 510    N 28  dz2    Ryd( 3d)     0.00139       2.97963
 511    N 28  dz2    Ryd( 4d)     0.00007       4.59553
 512    N 28  f(0)   Ryd( 4f)     0.00027       4.49129
 513    N 28  f(c1)  Ryd( 4f)     0.00019       4.39152
 514    N 28  f(s1)  Ryd( 4f)     0.00028       4.53259
 515    N 28  f(c2)  Ryd( 4f)     0.00016       4.57390
 516    N 28  f(s2)  Ryd( 4f)     0.00014       4.53580
 517    N 28  f(c3)  Ryd( 4f)     0.00019       4.95879
 518    N 28  f(s3)  Ryd( 4f)     0.00057       5.23849

[...]
  234.  0.00011     0.97452  450.   RY ( 5) C 25
  235.  0.00011     4.97293  511.   RY ( 9) N 28
  236.  0.00011     2.12710  257.   RY ( 2) H  8
  237.  0.00010     2.38957  236.   RY (12) C  6
  238.  0.00010     1.60716  533.   RY ( 5) O 29
  239.  0.00010     2.34933  442.   RY ( 2) H 24
  240.  0.00010     2.12507  324.   RY ( 2) H 13
  241.  0.00010     1.89207  382.   RY ( 9) C 19
  242.  0.00010     1.60665  417.   RY ( 8) C 22
  243.  0.00010     1.60413  559.   RY ( 5) O 30
  244.  0.00010     1.53506  297.   RY ( 6) C 11
  245.  0.00009     3.03463  159.   RY (13) C  3
  246.  0.00009     2.08825  329.   RY ( 2) H 14
  247.  0.00009     3.17744  418.   RY ( 9) C 22
  248.  0.00009     1.43013  258.   RY ( 3) H  8
  249.  0.00009     1.87797  263.   RY ( 3) H  9
  250.  0.00009     2.12123  474.   RY ( 3) H 26
  251.  0.00009     2.64467  131.   RY (11) C  2
  252.  0.00009     2.96175  274.   RY ( 9) N 10
  253.  0.00008     2.96339  207.   RY ( 9) C  5
  254.  0.00008     2.08730  365.   RY ( 2) H 17
  255.  0.00008     2.24039  106.   RY (12) C  1
  256.  0.00008     2.23711  360.   RY ( 2) H 16
  257.  0.00008     2.31237  443.   RY ( 3) H 24
  258.  0.00008     3.21804  275.   RY (10) N 10
  259.  0.00008     2.18798  319.   RY ( 2) H 12
  260.  0.00008     2.31085  402.   RY ( 3) H 20
  261.  0.00008     2.29104  407.   RY ( 3) H 21
  262.  0.00008     1.22811  182.   RY (10) C  4
  263.  0.00008     2.11254  253.   RY ( 3) H  7
  264.  0.00008     1.50673  298.   RY ( 7) C 11
  265.  0.00008     2.10659  320.   RY ( 3) H 12
  266.  0.00008     2.48125  383.   RY (10) C 19
  267.  0.00008     3.32201  451.   RY ( 6) C 25
  268.  0.00008     2.46051  480.   RY ( 4) O 27
  269.  0.00007     2.18359  330.   RY ( 3) H 14
  270.  0.00007     2.31529  438.   RY ( 3) H 23
  271.  0.00007     2.57683  264.   RY ( 4) H  9
  272.  0.00007     2.20307  384.   RY (11) C 19
  273.  0.00007     1.97432  254.   RY ( 4) H  7
  274.  0.00007     3.13872  534.   RY ( 6) O 29
  275.  0.00007     3.22483  237.   RY (13) C  6
  276.  0.00007     1.75375  339.   RY ( 7) C 15
  277.  0.00007     3.09106  560.   RY ( 6) O 30
  278.  0.00006     2.10519  366.   RY ( 3) H 17
  279.  0.00006     2.09192  371.   RY ( 3) H 18
  280.  0.00006     2.08860  325.   RY ( 3) H 13
  281.  0.00006     2.55045  259.   RY ( 4) H  8
  282.  0.00006     2.10404  361.   RY ( 3) H 16
  283.  0.00005     3.40605  107.   RY (13) C  1
  284.  0.00005     2.50482  132.   RY (12) C  2
  285.  0.00005     2.62064  208.   RY (10) C  5
  286.  0.00005     2.29700  372.   RY ( 4) H 18
  287.  0.00005     2.03620  419.   RY (10) C 22
  288.  0.00005     1.74945  299.   RY ( 8) C 11
  289.  0.00005     2.55771  108.   RY (14) C  1
  290.  0.00005     2.06495  452.   RY ( 7) C 25
  291.  0.00005     2.01970  475.   RY ( 4) H 26
  292.  0.00005     2.31002  160.   RY (14) C  3
  293.  0.00005     2.93479  276.   RY (11) N 10
  294.  0.00004     1.69286  340.   RY ( 8) C 15
  295.  0.00004     2.37808  385.   RY (12) C 19
  296.  0.00004     2.03158  183.   RY (11) C  4
  297.  0.00004     2.96037  238.   RY (14) C  6
  298.  0.00004     2.67494  408.   RY ( 4) H 21
  299.  0.00004     2.37940  439.   RY ( 4) H 23
  300.  0.00004     2.43916  420.   RY (11) C 22
  301.  0.00004     2.22738  321.   RY ( 4) H 12
  302.  0.00003     2.27406  403.   RY ( 4) H 20
  303.  0.00003     2.51536  184.   RY (12) C  4
  304.  0.00003     1.93851  209.   RY (11) C  5
  305.  0.00003     3.14136  239.   RY (15) C  6
  306.  0.00003     2.16448  326.   RY ( 4) H 13
  307.  0.00003     3.49925  512.   RY (10) N 28
  308.  0.00003     2.26712  362.   RY ( 4) H 16
  309.  0.00003     1.66055  481.   RY ( 5) O 27
  310.  0.00003     2.58122  561.   RY ( 7) O 30
  311.  0.00003     3.16041  277.   RY (12) N 10
  312.  0.00003     3.19363  109.   RY (15) C  1
  313.  0.00003     3.13616  133.   RY (13) C  2
  314.  0.00003     2.18743  331.   RY ( 4) H 14
  315.  0.00003     2.40058  444.   RY ( 4) H 24
  316.  0.00003     2.58134  535.   RY ( 7) O 29
  317.  0.00003     2.18771  367.   RY ( 4) H 17
  318.  0.00002     1.29214  453.   RY ( 8) C 25
  319.  0.00002     2.46798  185.   RY (13) C  4
  320.  0.00002     1.70055  341.   RY ( 9) C 15
  321.  0.00002     2.97637  386.   RY (13) C 19
  322.  0.00002     2.47947  513.   RY (11) N 28
  323.  0.00002     3.10693  240.   RY (16) C  6
  324.  0.00002     2.36998  134.   RY (14) C  2
  325.  0.00002     3.17608  135.   RY (15) C  2
  326.  0.00002     2.16758  210.   RY (12) C  5
  327.  0.00002     1.50556  300.   RY ( 9) C 11
  328.  0.00002     3.56236  387.   RY (14) C 19
  329.  0.00002     2.38681  409.   RY ( 5) H 21
  330.  0.00002     1.21325  482.   RY ( 6) O 27
  331.  0.00002     2.71091  421.   RY (12) C 22
  332.  0.00002     3.39295  110.   RY (16) C  1
  333.  0.00002     2.92921  186.   RY (14) C  4
  334.  0.00002     3.15228  278.   RY (13) N 10
  335.  0.00002     2.09996  301.   RY (10) C 11
  336.  0.00002     2.87655  255.   RY ( 5) H  7
  337.  0.00002     2.46174  342.   RY (10) C 15
  338.  0.00002     1.96013  388.   RY (15) C 19
  339.  0.00001     3.09960  111.   RY (17) C  1
  340.  0.00001     2.46360  136.   RY (16) C  2
  341.  0.00002     3.83035  161.   RY (15) C  3
  342.  0.00001     2.69248  211.   RY (13) C  5
  343.  0.00001     3.51332  279.   RY (14) N 10
  344.  0.00001     1.48246  483.   RY ( 7) O 27
  345.  0.00001     3.38297  241.   RY (17) C  6
  346.  0.00001     4.11476  162.   RY (16) C  3
  347.  0.00001     2.90738  260.   RY ( 5) H  8
  348.  0.00001     2.87277  265.   RY ( 5) H  9
  349.  0.00001     2.43693  440.   RY ( 5) H 23
  350.  0.00001     4.03676  514.   RY (12) N 28
  351.  0.00001     4.19415  280.   RY (15) N 10
  352.  0.00001     2.62832  302.   RY (11) C 11
  353.  0.00001     2.72722  389.   RY (16) C 19
  354.  0.00001     2.12848  536.   RY ( 8) O 29
  355.  0.00001     2.45309  404.   RY ( 5) H 20
  356.  0.00001     3.18462  562.   RY ( 8) O 30
  357.  0.00001     2.88403  112.   RY (18) C  1
  358.  0.00001     3.08979  113.   RY (19) C  1
  359.  0.00001     2.24875  137.   RY (17) C  2
  360.  0.00001     2.93482  187.   RY (15) C  4
  361.  0.00001     3.56395  212.   RY (14) C  5
  362.  0.00001     2.68670  213.   RY (15) C  5
  363.  0.00001     2.22730  343.   RY (11) C 15
  364.  0.00001     2.77732  422.   RY (13) C 22
  365.  0.00001     2.65023  454.   RY ( 9) C 25
  366.  0.00001     4.05241  515.   RY (13) N 28
  367.  0.00001     2.79595  537.   RY ( 9) O 29
  368.  0.00001     3.06539  114.   RY (20) C  1
  369.  0.00001     3.90957  163.   RY (17) C  3
  370.  0.00001     3.07965  242.   RY (18) C  6
  371.  0.00001     3.72806  243.   RY (19) C  6
  372.  0.00001     3.07420  390.   RY (17) C 19
  373.  0.00000     3.50240  115.   RY (21) C  1
  374.  0.00000     3.03810  138.   RY (18) C  2
  375.  0.00000     2.38537  164.   RY (18) C  3
  376.  0.00000     3.98240  139.   RY (19) C  2
  377.  0.00000     3.46299  188.   RY (16) C  4
  378.  0.00000     8.54169  116.   RY (22) C  1
  379.  0.00000     4.00052  117.   RY (23) C  1
  380.  0.00000     3.33381  118.   RY (24) C  1
  381.  0.00000     3.27274  119.   RY (25) C  1
  382.  0.00000    11.94476  140.   RY (20) C  2
  383.  0.00000     3.38063  141.   RY (21) C  2
  384.  0.00000    13.64425  120.   RY (26) C  1
  385.  0.00000     3.17496  142.   RY (22) C  2
  386.  0.00000     3.02229  143.   RY (23) C  2
  387.  0.00000     3.40381  144.   RY (24) C  2
  388.  0.00000     6.19321  145.   RY (25) C  2
  389.  0.00000     3.50134  165.   RY (19) C  3
  390.  0.00000     3.23600  189.   RY (17) C  4
  391.  0.00000     3.19195  190.   RY (18) C  4
  392.  0.00000     3.25358  214.   RY (16) C  5
  393.  0.00000     5.44571  215.   RY (17) C  5
  394.  0.00000     3.37210  146.   RY (26) C  2
  395.  0.00000     4.82373  166.   RY (20) C  3
  396.  0.00000     3.73493  167.   RY (21) C  3
  397.  0.00000     3.32083  168.   RY (22) C  3
  398.  0.00000     6.21934  169.   RY (23) C  3
  399.  0.00000     5.75463  170.   RY (24) C  3
  400.  0.00000     4.54901  171.   RY (25) C  3
  401.  0.00000    11.68066  172.   RY (26) C  3
  402.  0.00000     3.20368  191.   RY (19) C  4
  403.  0.00000    12.22784  192.   RY (20) C  4
  404.  0.00000     3.38711  193.   RY (21) C  4
  405.  0.00000     3.18022  194.   RY (22) C  4
  406.  0.00000     2.20189  216.   RY (18) C  5
  407.  0.00000     3.35162  217.   RY (19) C  5
  408.  0.00000     4.10555  244.   RY (20) C  6
  409.  0.00000     4.59997  281.   RY (16) N 10
  410.  0.00000     3.91036  282.   RY (17) N 10
  411.  0.00000     2.08081  303.   RY (12) C 11
  412.  0.00000     2.43595  327.   RY ( 5) H 13
  413.  0.00000     2.64185  332.   RY ( 5) H 14
  414.  0.00001     1.94885  344.   RY (12) C 15
  415.  0.00001     1.86008  455.   RY (10) C 25
  416.  0.00001     2.88946  476.   RY ( 5) H 26
  417.  0.00001     3.73835  516.   RY (14) N 28
  418.  0.00001     1.99502  563.   RY ( 9) O 30
  419.  0.00000     2.53492  363.   RY ( 5) H 16
  420.  0.00000     2.47224  368.   RY ( 5) H 17
  421.  0.00001     3.09218  391.   RY (18) C 19
  422.  0.00000     2.91783  423.   RY (14) C 22
  423.  0.00001     2.24871  445.   RY ( 5) H 24
  424.  0.00001     2.97580  517.   RY (15) N 28
  425.  0.00000     3.22367  195.   RY (23) C  4
  426.  0.00000     6.47116  196.   RY (24) C  4
  427.  0.00000     3.91164  197.   RY (25) C  4
  428.  0.00000     4.77802  218.   RY (20) C  5
  429.  0.00000     3.17649  219.   RY (21) C  5
  430.  0.00000     2.94887  245.   RY (21) C  6
  431.  0.00000     3.02181  246.   RY (22) C  6
  432.  0.00000     4.21699  283.   RY (18) N 10
  433.  0.00000     3.25954  198.   RY (26) C  4
  434.  0.00000     3.26425  220.   RY (22) C  5
  435.  0.00000     4.12181  221.   RY (23) C  5
  436.  0.00000     5.87175  222.   RY (24) C  5
  437.  0.00000     3.37383  223.   RY (25) C  5
  438.  0.00000    11.81304  224.   RY (26) C  5
  439.  0.00000     3.31115  247.   RY (23) C  6
  440.  0.00000     3.84612  248.   RY (24) C  6
  441.  0.00000     3.93588  249.   RY (25) C  6
  442.  0.00000    19.32619  250.   RY (26) C  6
  443.  0.00000     5.37220  284.   RY (19) N 10
  444.  0.00000     4.60190  285.   RY (20) N 10
  445.  0.00000    21.59932  286.   RY (21) N 10
  446.  0.00000     5.19461  287.   RY (22) N 10
  447.  0.00000     4.19267  288.   RY (23) N 10
  448.  0.00000     2.29740  304.   RY (13) C 11
  449.  0.00000     2.40924  305.   RY (14) C 11
  450.  0.00000     2.67900  322.   RY ( 5) H 12
  451.  0.00000     5.44850  289.   RY (24) N 10
  452.  0.00000     6.44657  290.   RY (25) N 10
  453.  0.00000     5.26531  291.   RY (26) N 10
  454.  0.00000    13.20017  306.   RY (15) C 11
  455.  0.00000     3.58502  307.   RY (16) C 11
  456.  0.00000     3.33125  308.   RY (17) C 11
  457.  0.00000     3.29588  309.   RY (18) C 11
  458.  0.00000     3.33534  310.   RY (19) C 11
  459.  0.00000     2.40081  311.   RY (20) C 11
  460.  0.00000     3.11945  312.   RY (21) C 11
  461.  0.00000     3.36551  313.   RY (22) C 11
  462.  0.00000     3.26491  314.   RY (23) C 11
  463.  0.00000     6.50434  315.   RY (24) C 11
  464.  0.00000     3.33788  316.   RY (25) C 11
  465.  0.00000     7.30619  317.   RY (26) C 11
  466.  0.00000     3.44477  345.   RY (13) C 15
  467.  0.00000     2.97498  346.   RY (14) C 15
  468.  0.00000     2.70260  347.   RY (15) C 15
  469.  0.00000     2.42689  348.   RY (16) C 15
  470.  0.00000     2.94714  349.   RY (17) C 15
  471.  0.00000     2.44015  373.   RY ( 5) H 18
  472.  0.00000     4.14219  424.   RY (15) C 22
  473.  0.00000     2.92448  392.   RY (19) C 19
  474.  0.00000     2.88870  456.   RY (11) C 25
  475.  0.00000     3.72073  484.   RY ( 8) O 27
  476.  0.00000     4.22623  350.   RY (18) C 15
  477.  0.00000    16.49156  351.   RY (19) C 15
  478.  0.00000     3.13971  352.   RY (20) C 15
  479.  0.00000     2.24253  353.   RY (21) C 15
  480.  0.00000     3.88730  354.   RY (22) C 15
  481.  0.00000     3.40225  355.   RY (23) C 15
  482.  0.00000     3.09642  356.   RY (24) C 15
  483.  0.00000     3.26673  357.   RY (25) C 15
  484.  0.00000     6.48136  358.   RY (26) C 15
  485.  0.00000    19.55977  393.   RY (20) C 19
  486.  0.00000     3.54662  394.   RY (21) C 19
  487.  0.00000     3.93090  395.   RY (22) C 19
  488.  0.00000     3.48000  396.   RY (23) C 19
  489.  0.00000     2.63311  425.   RY (16) C 22
  490.  0.00000     3.32215  397.   RY (24) C 19
  491.  0.00000     3.72088  398.   RY (25) C 19
  492.  0.00000     3.96294  399.   RY (26) C 19
  493.  0.00000     2.87887  426.   RY (17) C 22
  494.  0.00000     2.26273  427.   RY (18) C 22
  495.  0.00000     9.23996  428.   RY (19) C 22
  496.  0.00000     3.68435  429.   RY (20) C 22
  497.  0.00000     6.28147  430.   RY (21) C 22
  498.  0.00000     4.03601  431.   RY (22) C 22
  499.  0.00000     4.95752  432.   RY (23) C 22
  500.  0.00000     3.34332  433.   RY (24) C 22
  501.  0.00000     3.51036  434.   RY (25) C 22
  502.  0.00000     5.21398  435.   RY (26) C 22
  503.  0.00000     2.87922  457.   RY (12) C 25
  504.  0.00000     9.53992  458.   RY (13) C 25
  505.  0.00000     2.51552  459.   RY (14) C 25
  506.  0.00000     2.45773  460.   RY (15) C 25
  507.  0.00000     2.19224  461.   RY (16) C 25
  508.  0.00000     1.97409  462.   RY (17) C 25
  509.  0.00000     2.50625  518.   RY (16) N 28
  510.  0.00000     5.00181  538.   RY (10) O 29
  511.  0.00000     4.09289  564.   RY (10) O 30
  512.  0.00000     4.12694  463.   RY (18) C 25
  513.  0.00000     3.24120  464.   RY (19) C 25
  514.  0.00000     2.93555  465.   RY (20) C 25
  515.  0.00000     2.22805  466.   RY (21) C 25
  516.  0.00000     7.09242  467.   RY (22) C 25
  517.  0.00000     4.57518  468.   RY (23) C 25
  518.  0.00000     3.58535  469.   RY (24) C 25
  519.  0.00000     6.19644  470.   RY (25) C 25
  520.  0.00000     2.20634  471.   RY (26) C 25
  521.  0.00000     3.09203  485.   RY ( 9) O 27
  522.  0.00000     2.85216  486.   RY (10) O 27
  523.  0.00000     5.92475  487.   RY (11) O 27
  524.  0.00000     4.07989  488.   RY (12) O 27
  525.  0.00000     5.80058  489.   RY (13) O 27
  526.  0.00000     4.88047  490.   RY (14) O 27
  527.  0.00000     9.33527  491.   RY (15) O 27
  528.  0.00000    13.31205  492.   RY (16) O 27
  529.  0.00000     8.80193  493.   RY (17) O 27
  530.  0.00000     2.82015  494.   RY (18) O 27
  531.  0.00000     5.06881  495.   RY (19) O 27
  532.  0.00000     7.24629  496.   RY (20) O 27
  533.  0.00000    10.94272  497.   RY (21) O 27
  534.  0.00000     5.96001  498.   RY (22) O 27
  535.  0.00000     7.26091  499.   RY (23) O 27
  536.  0.00000     7.60157  500.   RY (24) O 27
  537.  0.00000     9.95167  501.   RY (25) O 27
  538.  0.00000    11.74042  502.   RY (26) O 27
  539.  0.00000    20.16306  519.   RY (17) N 28
  540.  0.00000     6.33719  520.   RY (18) N 28
  541.  0.00000     6.43280  521.   RY (19) N 28
  542.  0.00000     5.03463  522.   RY (20) N 28
  543.  0.00000     2.65393  539.   RY (11) O 29
  544.  0.00000     3.13707  540.   RY (12) O 29
  545.  0.00000     2.71536  565.   RY (11) O 30
  546.  0.00000     3.78653  566.   RY (12) O 30
  547.  0.00000     4.28563  523.   RY (21) N 28
  548.  0.00000     6.12510  524.   RY (22) N 28
  549.  0.00000     4.96733  525.   RY (23) N 28
  550.  0.00000     4.99921  526.   RY (24) N 28
  551.  0.00000     4.59200  527.   RY (25) N 28
  552.  0.00000     4.66592  528.   RY (26) N 28
  553.  0.00000     6.60084  541.   RY (13) O 29
  554.  0.00000     5.80343  542.   RY (14) O 29
  555.  0.00000     2.91088  543.   RY (15) O 29
  556.  0.00000     6.21648  544.   RY (16) O 29
  557.  0.00000    24.85325  545.   RY (17) O 29
  558.  0.00000     6.47985  546.   RY (18) O 29
  559.  0.00000    11.48754  547.   RY (19) O 29
  560.  0.00000     6.84419  548.   RY (20) O 29
  561.  0.00000     9.66198  549.   RY (21) O 29
  562.  0.00000     6.04769  550.   RY (22) O 29
  563.  0.00000     5.44497  551.   RY (23) O 29
  564.  0.00000     8.22150  552.   RY (24) O 29
  565.  0.00000     5.39676  553.   RY (25) O 29
  566.  0.00000     5.87119  554.   RY (26) O 29
  567.  0.00000    23.70530  567.   RY (13) O 30
  568.  0.00000    14.28102  568.   RY (14) O 30
  569.  0.00000     6.21137  569.   RY (15) O 30
  570.  0.00000     3.23667  570.   RY (16) O 30
  571.  0.00000     6.03874  571.   RY (17) O 30
  572.  0.00000     6.25747  572.   RY (18) O 30
  573.  0.00000     6.36245  573.   RY (19) O 30
  574.  0.00000     5.95373  574.   RY (20) O 30
  575.  0.00000     6.85135  575.   RY (21) O 30
  576.  0.00000     9.35289  576.   RY (22) O 30
  577.  0.00000     5.64597  577.   RY (23) O 30
  578.  0.00000     5.38642  578.   RY (24) O 30
  579.  0.00000     6.64570  579.   RY (25) O 30
  580.  0.00000     5.95105  580.   RY (26) O 30

 Maximum scratch memory used by NBO was 2960212 words
 Maximum scratch memory used by G09NBO was 2193562 words

 Read Unf file /home/aloke/aloke/prakash/Gau-46402.EUF:
 Label Gaussian matrix elements                                         IVers= 1 NLab= 2 Version=AM64L-G09RevD.01
 Title Energy Optimisation and Frequency calculation                   
 NAtoms=    30 NBasis=   580 NBsUse=   580 ICharg=     0 Multip=     1 NE=   118 Len12L=8 Len4L=8
 Label GAUSSIAN SCALARS                                                 NI= 1 NR= 1 NTot=       1 LenBuf=    2000 N=    1000       1       1       1       1
 Label ALPHA ORBITAL ENERGIES                                           NI= 0 NR= 1 NTot=     580 LenBuf=    4000 N=     580       0       0       0       0
 Label ALPHA MO COEFFICIENTS                                            NI= 0 NR= 1 NTot=  336400 LenBuf=    4000 N=     580     580       0       0       0
 Store file  524 Len=  336400.
 Label NPA CHARGES                                                      NI= 0 NR= 1 NTot=      30 LenBuf=    4000 N=      30       0       0       0       0
 Recovered energy= -762.990404034     dipole=      0.000000000000      0.000000000000      0.000000000000
 1\1\GINC-CN159\SP\RB3LYP\def2TZVP\C11H14N2O3\ALOKE\14-Jul-2021\0\\# b
 3lyp/def2tzvp empiricaldispersion=gd3 pop=nbo6read pop=saveNBOs int=(g
 rid=ultrafine) scf=(tight,maxcycle=300)\\Energy Optimisation and Frequ
 ency calculation\\0,1\C,0,0.174743,-0.267179,0.312175\C,0,-1.074811,-0
 .869824,0.311599\C,0,-2.219664,-0.137126,0.022125\C,0,-2.149277,1.2114
 27,-0.284139\C,0,-0.910374,1.829409,-0.267913\C,0,0.258311,1.122193,0.
 044742\H,0,-1.170176,-1.928418,0.506718\H,0,-3.050416,1.761013,-0.5110
 13\H,0,-0.856293,2.886593,-0.483483\N,0,1.5184,1.75684,0.050632\C,0,1.
 67456,2.94343,-0.774928\H,0,1.202067,3.84036,-0.346796\H,0,2.74002,3.1
 5378,-0.882264\H,0,1.2585,2.769119,-1.766524\C,0,2.149342,1.925471,1.3
 60335\H,0,1.770558,2.823721,1.869264\H,0,3.22986,2.02493,1.242543\H,0,
 1.949143,1.073931,2.003303\C,0,1.401235,-1.133516,0.471725\H,0,1.10596
 1,-2.110923,0.855029\H,0,2.104153,-0.733922,1.199256\C,0,2.140571,-1.3
 19901,-0.855934\H,0,2.39529,-0.347645,-1.294233\H,0,1.509468,-1.820458
 ,-1.599444\C,0,3.422353,-2.096915,-0.734955\H,0,3.932263,-2.305484,-1.
 700378\O,0,3.90306,-2.473508,0.303012\N,0,-3.523906,-0.810882,0.021822
 \O,0,-4.508586,-0.148103,-0.275049\O,0,-3.554949,-1.997529,0.318518\\V
 ersion=AM64L-G09RevD.01\State=1-A\HF=-762.990404\RMSD=5.333e-09\Dipole
 =1.621397,1.7017817,-0.6291214\Quadrupole=-15.3059889,7.1201617,8.1858
 272,1.5326797,-3.9840837,2.9089584\PG=C01 [X(C11H14N2O3)]\\@


 CONFIDENCE: THAT QUIET ASSURED FEELING YOU HAVE
 JUST BEFORE YOU FALL FLAT ON YOUR FACE.
 Job cpu time:       0 days  1 hours  9 minutes 13.1 seconds.
 File lengths (MBytes):  RWF=    131 Int=      0 D2E=      0 Chk=     13 Scr=      1
 Normal termination of Gaussian 09 at Wed Jul 14 10:03:01 2021.
